
     Program PWSCF v.7.2 starts on 18Jun2025 at 10:58:38 

     This program is part of the open-source Quantum ESPRESSO suite
     for quantum simulation of materials; please cite
         "P. Giannozzi et al., J. Phys.:Condens. Matter 21 395502 (2009);
         "P. Giannozzi et al., J. Phys.:Condens. Matter 29 465901 (2017);
         "P. Giannozzi et al., J. Chem. Phys. 152 154105 (2020);
          URL http://www.quantum-espresso.org", 
     in publications or presentations arising from this work. More details at
     http://www.quantum-espresso.org/quote

     Parallel version (MPI), running on    20 processors

     MPI processes distributed on     1 nodes
     250006 MiB available memory on the printing compute node when the environment starts

     Reading input from pw3.in
Warning: card &CELL ignored
Warning: card / ignored
Warning: card &FCP ignored
Warning: card / ignored
Warning: card &RISM ignored
Warning: card / ignored

     Current dimensions of program PWSCF are:
     Max number of different atomic species (ntypx) = 10
     Max number of k-points (npk) =  40000
     Max angular momentum in pseudopotentials (lmaxx) =  4
     file N.pbe-n-kjpaw_psl.1.0.0.UPF: wavefunction(s)  2S renormalized
     file C.pbe-n-kjpaw_psl.1.0.0.UPF: wavefunction(s)  2S 2P renormalized
     file H.pbe-kjpaw_psl.1.0.0.UPF: wavefunction(s)  1S renormalized
     file Cl.pbe-n-kjpaw_psl.1.0.0.UPF: wavefunction(s)  3S 3P renormalized

     R & G space division:  proc/nbgrp/npool/nimage =      20
     Subspace diagonalization in iterative solution of the eigenvalue problem:
     a serial algorithm will be used


     Parallelization info
     --------------------
     sticks:   dense  smooth     PW     G-vecs:    dense   smooth      PW
     Min        3411    1364    340               669939   169462   21182
     Max        3413    1365    341               669940   169465   21187
     Sum       68237   27281   6817             13398795  3389267  423701

     Using Slab Decomposition



     bravais-lattice index     =            0
     lattice parameter (alat)  =      37.7945  a.u.
     unit-cell volume          =   53986.6760 (a.u.)^3
     number of atoms/cell      =           20
     number of atomic types    =            4
     number of electrons       =        52.00
     number of Kohn-Sham states=           31
     kinetic-energy cutoff     =      60.0000  Ry
     charge density cutoff     =     600.0000  Ry
     scf convergence threshold =      1.0E-06
     mixing beta               =       0.7000
     number of iterations used =            8  plain     mixing
     energy convergence thresh.=      1.0E-04
     force convergence thresh. =      1.0E-03
     Exchange-correlation= SLA  PW   PBX  PBC
                           (   1   4   3   4   0   0   0)
     nstep                     =           50


     celldm(1)=  37.794522  celldm(2)=   0.000000  celldm(3)=   0.000000
     celldm(4)=   0.000000  celldm(5)=   0.000000  celldm(6)=   0.000000

     crystal axes: (cart. coord. in units of alat)
               a(1) = (   1.000000   0.000000   0.000000 )  
               a(2) = (   0.000000   1.000000   0.000000 )  
               a(3) = (   0.000000   0.000000   1.000000 )  

     reciprocal axes: (cart. coord. in units 2 pi/alat)
               b(1) = (  1.000000  0.000000  0.000000 )  
               b(2) = (  0.000000  1.000000  0.000000 )  
               b(3) = (  0.000000  0.000000  1.000000 )  


     PseudoPot. # 1 for N  read from file:
     /home/ebarquero/practicas/pseudo/N.pbe-n-kjpaw_psl.1.0.0.UPF
     MD5 check sum: 14c48229446f9f2d411169a3abcbc3fa
     Pseudo is Projector augmented-wave + core cor, Zval =  5.0
     Generated using &quot;atomic&quot; code by A. Dal Corso  v.6.3
     Shape of augmentation charge: PSQ
     Using radial grid of 1085 points,  4 beta functions with: 
                l(1) =   0
                l(2) =   0
                l(3) =   1
                l(4) =   1
     Q(r) pseudized with 0 coefficients 


     PseudoPot. # 2 for C  read from file:
     /home/ebarquero/practicas/pseudo/C.pbe-n-kjpaw_psl.1.0.0.UPF
     MD5 check sum: 5f16ad9a65e90284d1d834d4ab3b0f7d
     Pseudo is Projector augmented-wave + core cor, Zval =  4.0
     Generated using &quot;atomic&quot; code by A. Dal Corso  v.6.3
     Shape of augmentation charge: PSQ
     Using radial grid of 1073 points,  4 beta functions with: 
                l(1) =   0
                l(2) =   0
                l(3) =   1
                l(4) =   1
     Q(r) pseudized with 0 coefficients 


     PseudoPot. # 3 for H  read from file:
     /home/ebarquero/practicas/pseudo/H.pbe-kjpaw_psl.1.0.0.UPF
     MD5 check sum: d81a744832360e4a8af0b0b5b123bc2a
     Pseudo is Projector augmented-wave, Zval =  1.0
     Generated using &quot;atomic&quot; code by A. Dal Corso  v.6.3MaX
     Shape of augmentation charge: PSQ
     Using radial grid of  929 points,  2 beta functions with: 
                l(1) =   0
                l(2) =   0
     Q(r) pseudized with 0 coefficients 


     PseudoPot. # 4 for Cl read from file:
     /home/ebarquero/practicas/pseudo/Cl.pbe-n-kjpaw_psl.1.0.0.UPF
     MD5 check sum: 530da96d25dcb7781b0586ca00827062
     Pseudo is Projector augmented-wave + core cor, Zval =  7.0
     Generated using &quot;atomic&quot; code by A. Dal Corso  v.6.3
     Shape of augmentation charge: PSQ
     Using radial grid of 1157 points,  6 beta functions with: 
                l(1) =   0
                l(2) =   0
                l(3) =   1
                l(4) =   1
                l(5) =   2
                l(6) =   2
     Q(r) pseudized with 0 coefficients 


     atomic species   valence    mass     pseudopotential
        N              5.00    14.00700     N ( 1.00)
        C              4.00    12.01100     C ( 1.00)
        H              1.00     1.00800     H ( 1.00)
        Cl             7.00    35.45000     Cl( 1.00)

     No symmetry found



   Cartesian axes

     site n.     atom                  positions (alat units)
         1           N   tau(   1) = (   0.4784350   0.4983700   0.4822825  )
         2           N   tau(   2) = (   0.5840800   0.4834250   0.4981975  )
         3           C   tau(   3) = (   0.4086850   0.4849100   0.4683775  )
         4           C   tau(   4) = (   0.5267500   0.4522000   0.4838175  )
         5           C   tau(   5) = (   0.5053200   0.5601200   0.4958775  )
         6           C   tau(   6) = (   0.5722200   0.5506600   0.5059525  )
         7           C   tau(   7) = (   0.3692350   0.4695750   0.5314475  )
         8           C   tau(   8) = (   0.6484800   0.4509850   0.5045475  )
         9           H   tau(   9) = (   0.3870500   0.5281950   0.4426725  )
        10           H   tau(  10) = (   0.4058600   0.4424850   0.4338175  )
        11           H   tau(  11) = (   0.5205200   0.3993350   0.4751075  )
        12           H   tau(  12) = (   0.4726500   0.6026750   0.4965575  )
        13           H   tau(  13) = (   0.6136500   0.5826400   0.5177475  )
        14           H   tau(  14) = (   0.3900550   0.4260000   0.5572075  )
        15           H   tau(  15) = (   0.3169150   0.4591950   0.5193225  )
        16           H   tau(  16) = (   0.3709150   0.5118400   0.5661825  )
        17           H   tau(  17) = (   0.6434600   0.3973250   0.4954175  )
        18           H   tau(  18) = (   0.6830850   0.4722900   0.4679675  )
        19           H   tau(  19) = (   0.6677300   0.4589100   0.5551025  )
        20           Cl  tau(  20) = (   0.5048462   0.3166850   0.4902400  )

     number of k points=     1  Methfessel-Paxton smearing, width (Ry)=  0.0200
                       cart. coord. in units 2pi/alat
        k(    1) = (   0.0000000   0.0000000   0.0000000), wk =   2.0000000

     Dense  grid: 13398795 G-vectors     FFT dimensions: ( 300, 300, 300)

     Smooth grid:  3389267 G-vectors     FFT dimensions: ( 192, 192, 192)

     Estimated max dynamical RAM per process >       2.64 GB

     Estimated total dynamical RAM >      52.81 GB

     Initial potential from superposition of free atoms

     starting charge      51.9996, renormalised to      52.0000

     negative rho (up, down):  5.066E-04 0.000E+00
     Starting wfcs are   47 randomized atomic wfcs
     Checking if some PAW data can be deallocated... 

     total cpu time spent up to now is       49.4 secs

     Self-consistent Calculation

     iteration #  1     ecut=    60.00 Ry     beta= 0.70
     Davidson diagonalization with overlap
     ethr =  1.00E-02,  avg # of iterations =  4.0

     negative rho (up, down):  7.087E-04 0.000E+00

     total cpu time spent up to now is      100.1 secs

     total energy              =    -258.98445061 Ry
     estimated scf accuracy    <       1.82818096 Ry

     iteration #  2     ecut=    60.00 Ry     beta= 0.70
     Davidson diagonalization with overlap
     ethr =  3.52E-03,  avg # of iterations =  4.0

     negative rho (up, down):  8.342E-04 0.000E+00

     total cpu time spent up to now is      150.8 secs

     total energy              =    -259.33854621 Ry
     estimated scf accuracy    <       0.33446060 Ry

     iteration #  3     ecut=    60.00 Ry     beta= 0.70
     Davidson diagonalization with overlap
     ethr =  6.43E-04,  avg # of iterations =  6.0

     negative rho (up, down):  8.724E-04 0.000E+00

     total cpu time spent up to now is      200.5 secs

     total energy              =    -259.39902088 Ry
     estimated scf accuracy    <       0.01857701 Ry

     iteration #  4     ecut=    60.00 Ry     beta= 0.70
     Davidson diagonalization with overlap
     ethr =  3.57E-05,  avg # of iterations =  7.0

     negative rho (up, down):  8.928E-04 0.000E+00

     total cpu time spent up to now is      252.6 secs

     total energy              =    -259.40202602 Ry
     estimated scf accuracy    <       0.00831598 Ry

     iteration #  5     ecut=    60.00 Ry     beta= 0.70
     Davidson diagonalization with overlap
     ethr =  1.60E-05,  avg # of iterations =  4.0

     negative rho (up, down):  8.964E-04 0.000E+00

     total cpu time spent up to now is      302.2 secs

     total energy              =    -259.40370046 Ry
     estimated scf accuracy    <       0.00093887 Ry

     iteration #  6     ecut=    60.00 Ry     beta= 0.70
     Davidson diagonalization with overlap
     ethr =  1.81E-06,  avg # of iterations =  7.0

     negative rho (up, down):  8.995E-04 0.000E+00

     total cpu time spent up to now is      353.1 secs

     total energy              =    -259.40390712 Ry
     estimated scf accuracy    <       0.00009195 Ry

     iteration #  7     ecut=    60.00 Ry     beta= 0.70
     Davidson diagonalization with overlap
     ethr =  1.77E-07,  avg # of iterations =  2.0

     negative rho (up, down):  9.005E-04 0.000E+00

     total cpu time spent up to now is      402.7 secs

     total energy              =    -259.40393043 Ry
     estimated scf accuracy    <       0.00001545 Ry

     iteration #  8     ecut=    60.00 Ry     beta= 0.70
     Davidson diagonalization with overlap
     ethr =  2.97E-08,  avg # of iterations =  2.0

     negative rho (up, down):  9.012E-04 0.000E+00

     total cpu time spent up to now is      451.7 secs

     total energy              =    -259.40393299 Ry
     estimated scf accuracy    <       0.00000213 Ry

     iteration #  9     ecut=    60.00 Ry     beta= 0.70
     Davidson diagonalization with overlap
     ethr =  4.10E-09,  avg # of iterations =  2.0

     negative rho (up, down):  9.014E-04 0.000E+00

     total cpu time spent up to now is      500.1 secs

     End of self-consistent calculation

          k = 0.0000 0.0000 0.0000 (423701 PWs)   bands (ev):

   -27.2540 -24.3403 -20.5434 -19.5756 -18.5725 -16.8360 -16.6522 -16.0770
   -15.0274 -14.0589 -12.7703 -12.3306 -12.0742 -11.8607 -11.2847 -11.1943
   -10.9565 -10.2797  -9.9082  -9.4963  -8.8429  -7.7972  -6.8691  -4.5621
    -4.5358  -4.2953  -1.4254  -1.3322  -0.8227  -0.5377  -0.1776

     the Fermi energy is    -3.0456 ev

!    total energy              =    -259.40393341 Ry
     total all-electron energy =     -1612.254651 Ry
     estimated scf accuracy    <       0.00000019 Ry
     smearing contrib. (-TS)   =       0.00000000 Ry
     internal energy E=F+TS    =    -259.40393341 Ry

     The total energy is F=E-TS. E is the sum of the following terms:
     one-electron contribution =    -819.02923553 Ry
     hartree contribution      =     415.49119654 Ry
     xc contribution           =     -58.08545579 Ry
     ewald contribution        =     300.60668241 Ry
     one-center paw contrib.   =     -98.38712104 Ry

     convergence has been achieved in   9 iterations

     negative rho (up, down):  9.014E-04 0.000E+00

     Forces acting on atoms (cartesian axes, Ry/au):

     atom    1 type  1   force =     0.01056450    0.00394721   -0.00433115
     atom    2 type  1   force =    -0.00936974   -0.00420959    0.00036785
     atom    3 type  2   force =    -0.02983410   -0.01219364   -0.00569786
     atom    4 type  2   force =     0.01455495    0.07377667   -0.01344462
     atom    5 type  2   force =     0.00427074    0.00863751    0.00495547
     atom    6 type  2   force =     0.00028361    0.01102001    0.00391492
     atom    7 type  2   force =     0.00288454   -0.00060314    0.01003717
     atom    8 type  2   force =     0.01184115   -0.00419512   -0.00018072
     atom    9 type  3   force =     0.00488700    0.00583094   -0.00285575
     atom   10 type  3   force =     0.00533299   -0.00302138   -0.00038936
     atom   11 type  3   force =    -0.00650986   -0.05374605   -0.00784425
     atom   12 type  3   force =     0.00277112    0.02001252    0.00341958
     atom   13 type  3   force =     0.00169704    0.02076352    0.00359247
     atom   14 type  3   force =     0.00113608   -0.00610286   -0.00155313
     atom   15 type  3   force =    -0.00347465   -0.00048665   -0.00224852
     atom   16 type  3   force =    -0.00261051    0.00563794    0.00347834
     atom   17 type  3   force =    -0.00725988   -0.00233192    0.00014129
     atom   18 type  3   force =     0.00541512    0.00135269   -0.00173006
     atom   19 type  3   force =     0.00421902   -0.00047223    0.00356877
     atom   20 type  4   force =    -0.01079910   -0.06361643    0.00679954
     The non-local contrib.  to forces
     atom    1 type  1   force =     0.18683846    0.03814350    0.04308490
     atom    2 type  1   force =    -0.12741309    0.06063030    0.00114881
     atom    3 type  2   force =     0.39164807    0.11876408    0.11901059
     atom    4 type  2   force =     0.09652491    0.87326250    0.18871670
     atom    5 type  2   force =    -0.14057614   -0.28889815   -0.05368648
     atom    6 type  2   force =     0.07284500   -0.32021159   -0.02762003
     atom    7 type  2   force =     0.02865769    0.06940370   -0.08639625
     atom    8 type  2   force =    -0.36719069    0.25440560   -0.03290222
     atom    9 type  3   force =     0.03219828   -0.05882156    0.03661568
     atom   10 type  3   force =     0.00538881    0.06097622    0.04893536
     atom   11 type  3   force =     0.00852505    0.07358657    0.01306437
     atom   12 type  3   force =     0.05019325   -0.06548054   -0.00107382
     atom   13 type  3   force =    -0.06362884   -0.04921044   -0.01812655
     atom   14 type  3   force =    -0.02854715    0.06117576   -0.03611529
     atom   15 type  3   force =     0.07191809    0.01498524    0.01530399
     atom   16 type  3   force =    -0.00171649   -0.05644251   -0.04834487
     atom   17 type  3   force =     0.00624737    0.07821363    0.01273051
     atom   18 type  3   force =    -0.04941076   -0.02855788    0.05150283
     atom   19 type  3   force =    -0.02776347   -0.00970641   -0.07123137
     atom   20 type  4   force =     0.00065133   -0.00335560   -0.00441977
     The ionic contribution  to forces
     atom    1 type  1   force =    -5.09042010    1.68461032   -2.21989145
     atom    2 type  1   force =     7.74793723   -0.74505527    0.69624892
     atom    3 type  2   force =    -7.06681054    0.13984485   -4.30725858
     atom    4 type  2   force =     0.18777572   -7.54292243   -2.03301749
     atom    5 type  2   force =    -1.97328911   10.90010503    0.67333376
     atom    6 type  2   force =     5.66436599    9.48254267    2.04534497
     atom    7 type  2   force =    -6.51506215   -0.92250739    3.97549205
     atom    8 type  2   force =     8.73247251   -2.99755421    0.81129027
     atom    9 type  3   force =    -2.20115711    2.35786045   -2.04663844
     atom   10 type  3   force =    -1.36114866   -2.15230370   -2.62445168
     atom   11 type  3   force =     0.00562899   -2.52116887   -0.94036196
     atom   12 type  3   force =    -1.66085632    3.56317714    0.11228731
     atom   13 type  3   force =     2.63052039    2.80507681    0.82056485
     atom   14 type  3   force =    -0.35427437   -2.31184232    2.07418061
     atom   15 type  3   force =    -3.40834083   -0.59735680   -0.11464749
     atom   16 type  3   force =    -1.15267292    1.98555808    2.43947336
     atom   17 type  3   force =     1.30672991   -3.05882087   -0.34117794
     atom   18 type  3   force =     2.99688407    0.68341049   -1.85083039
     atom   19 type  3   force =     2.22115757   -0.00984638    2.79717734
     atom   20 type  4   force =    -0.70944027  -10.74280762    0.03288197
     The local contribution  to forces
     atom    1 type  1   force =     4.91424891   -1.71816797    2.17252370
     atom    2 type  1   force =    -7.62862247    0.68021494   -0.69663165
     atom    3 type  2   force =     6.65273868   -0.26882274    4.18563487
     atom    4 type  2   force =    -0.26867081    6.75417078    1.83345922
     atom    5 type  2   force =     2.11358962  -10.60486572   -0.61562088
     atom    6 type  2   force =    -5.73295095   -9.15475486   -2.01353419
     atom    7 type  2   force =     6.48997974    0.85371480   -3.88106848
     atom    8 type  2   force =    -8.36054578    2.74356217   -0.77926929
     atom    9 type  3   force =     2.17383401   -2.29317641    2.00713130
     atom   10 type  3   force =     1.36110539    2.08829859    2.57509147
     atom   11 type  3   force =    -0.02065190    2.39391705    0.91943910
     atom   12 type  3   force =     1.61338602   -3.47763908   -0.10780423
     atom   13 type  3   force =    -2.56516696   -2.73508549   -0.79884349
     atom   14 type  3   force =     0.38395862    2.24453748   -2.03959217
     atom   15 type  3   force =     3.33289064    0.58188325    0.09709601
     atom   16 type  3   force =     1.15175886   -1.92343846   -2.38761166
     atom   17 type  3   force =    -1.32025179    2.97834190    0.32859015
     atom   18 type  3   force =    -2.94210530   -0.65351512    1.79762943
     atom   19 type  3   force =    -2.18920231    0.01907962   -2.72242990
     atom   20 type  4   force =     0.69732306   10.67790289   -0.02143732
     The core correction contribution to forces
     atom    1 type  1   force =     0.00004709   -0.00097052   -0.00022494
     atom    2 type  1   force =    -0.00120035   -0.00037402   -0.00052405
     atom    3 type  2   force =    -0.00722699   -0.00197705   -0.00325242
     atom    4 type  2   force =    -0.00113008   -0.01072784   -0.00269703
     atom    5 type  2   force =     0.00443811    0.00213444    0.00082504
     atom    6 type  2   force =    -0.00383576    0.00334424   -0.00031024
     atom    7 type  2   force =    -0.00077160   -0.00126069    0.00210101
     atom    8 type  2   force =     0.00706285   -0.00464158    0.00065039
     atom    9 type  3   force =     0.00000000    0.00000000    0.00000000
     atom   10 type  3   force =     0.00000000    0.00000000    0.00000000
     atom   11 type  3   force =     0.00000000    0.00000000    0.00000000
     atom   12 type  3   force =     0.00000000    0.00000000    0.00000000
     atom   13 type  3   force =     0.00000000    0.00000000    0.00000000
     atom   14 type  3   force =     0.00000000    0.00000000    0.00000000
     atom   15 type  3   force =     0.00000000    0.00000000    0.00000000
     atom   16 type  3   force =     0.00000000    0.00000000    0.00000000
     atom   17 type  3   force =     0.00000000    0.00000000    0.00000000
     atom   18 type  3   force =     0.00000000    0.00000000    0.00000000
     atom   19 type  3   force =     0.00000000    0.00000000    0.00000000
     atom   20 type  4   force =     0.00073779    0.00450845   -0.00035231
     The Hubbard contrib.    to forces
     atom    1 type  1   force =     0.00000000    0.00000000    0.00000000
     atom    2 type  1   force =     0.00000000    0.00000000    0.00000000
     atom    3 type  2   force =     0.00000000    0.00000000    0.00000000
     atom    4 type  2   force =     0.00000000    0.00000000    0.00000000
     atom    5 type  2   force =     0.00000000    0.00000000    0.00000000
     atom    6 type  2   force =     0.00000000    0.00000000    0.00000000
     atom    7 type  2   force =     0.00000000    0.00000000    0.00000000
     atom    8 type  2   force =     0.00000000    0.00000000    0.00000000
     atom    9 type  3   force =     0.00000000    0.00000000    0.00000000
     atom   10 type  3   force =     0.00000000    0.00000000    0.00000000
     atom   11 type  3   force =     0.00000000    0.00000000    0.00000000
     atom   12 type  3   force =     0.00000000    0.00000000    0.00000000
     atom   13 type  3   force =     0.00000000    0.00000000    0.00000000
     atom   14 type  3   force =     0.00000000    0.00000000    0.00000000
     atom   15 type  3   force =     0.00000000    0.00000000    0.00000000
     atom   16 type  3   force =     0.00000000    0.00000000    0.00000000
     atom   17 type  3   force =     0.00000000    0.00000000    0.00000000
     atom   18 type  3   force =     0.00000000    0.00000000    0.00000000
     atom   19 type  3   force =     0.00000000    0.00000000    0.00000000
     atom   20 type  4   force =     0.00000000    0.00000000    0.00000000
     The SCF correction term to forces
     atom    1 type  1   force =    -0.00015790    0.00034562    0.00017794
     atom    2 type  1   force =    -0.00007910    0.00038820    0.00012712
     atom    3 type  2   force =    -0.00019136    0.00001096    0.00016898
     atom    4 type  2   force =     0.00004716    0.00000741    0.00009527
     atom    5 type  2   force =     0.00010022    0.00017566    0.00010533
     atom    6 type  2   force =    -0.00014872    0.00011328    0.00003570
     atom    7 type  2   force =     0.00007281    0.00006019   -0.00008986
     atom    8 type  2   force =     0.00003421    0.00004664    0.00005143
     atom    9 type  3   force =     0.00000376   -0.00001779    0.00003702
     atom   10 type  3   force =    -0.00002061    0.00002125    0.00003679
     atom   11 type  3   force =    -0.00002004   -0.00006706    0.00001554
     atom   12 type  3   force =     0.00004012   -0.00003125    0.00001162
     atom   13 type  3   force =    -0.00003559   -0.00000361   -0.00000104
     atom   14 type  3   force =    -0.00000906    0.00003996   -0.00002498
     atom   15 type  3   force =     0.00004940    0.00001540    0.00000027
     atom   16 type  3   force =     0.00001199   -0.00002542   -0.00003718
     atom   17 type  3   force =     0.00000657   -0.00005284   -0.00000013
     atom   18 type  3   force =     0.00003907    0.00002895   -0.00003064
     atom   19 type  3   force =     0.00001919    0.00001467    0.00005400
     atom   20 type  4   force =    -0.00007906    0.00014920    0.00012827

     Total force =     0.126827     Total SCF correction =     0.000782


     Computing stress (Cartesian axis) and pressure


     negative rho (up, down):  9.014E-04 0.000E+00
          total   stress  (Ry/bohr**3)                   (kbar)     P=        0.84
   0.00000256   0.00000199   0.00000017            0.38        0.29        0.02
   0.00000199   0.00001370   0.00000084            0.29        2.02        0.12
   0.00000017   0.00000084   0.00000089            0.02        0.12        0.13


     BFGS Geometry Optimization
     Energy error            =      0.0E+00 Ry
     Gradient error          =      7.4E-02 Ry/Bohr

     number of scf cycles    =   1
     number of bfgs steps    =   0

     energy             new  =    -259.4039334086 Ry

     new trust radius        =       0.0763911045 bohr
     new conv_thr            =       0.0000010000 Ry


ATOMIC_POSITIONS (angstrom)
N             9.5742904933        9.9694887734        9.6433580554
N            11.6766417495        9.6662723830        9.9641446603
C             8.1579124731        9.6917474015        9.3645348229
C            10.5427021477        9.0830409306        9.6692354145
C            10.1086599778       11.2069707750        9.9201723220
C            11.4445500810       11.0190315364       10.1211216864
C             7.3862264307        9.3911808313       10.6342614403
C            12.9758660660        9.0174800391       10.0908543689
H             7.7435860887       10.5669856029        8.8519388040
H             8.1200220953        8.8481011569        8.6761439619
H            10.4069551281        7.9582588168        9.4979990018
H             9.4544664121       12.0640901678        9.9329595627
H            12.2738980350       11.6637875826       10.3568510551
H             7.8017011870        8.5167705029       11.1433281197
H             6.3364612925        9.1836424741       10.3852601339
H             7.4169185783       10.2397834718       11.3254906602
H            12.8653582347        7.9452659986        9.9084247671
H            13.6645655582        9.4465158146        9.3584344893
H            13.3568326109        9.1779501041       11.1039385095
Cl           10.0912103600        6.3000356367        9.8083981639



     Writing config-only to output data dir ./plusCL3.save/
     NEW-OLD atomic charge density approx. for the potential

     negative rho (up, down):  8.950E-04 0.000E+00

     total cpu time spent up to now is      653.0 secs

     Self-consistent Calculation

     iteration #  1     ecut=    60.00 Ry     beta= 0.70
     Davidson diagonalization with overlap
     ethr =  1.00E-06,  avg # of iterations =  7.0

     negative rho (up, down):  8.985E-04 0.000E+00

     total cpu time spent up to now is      709.1 secs

     total energy              =    -259.40989970 Ry
     estimated scf accuracy    <       0.00260833 Ry

     iteration #  2     ecut=    60.00 Ry     beta= 0.70
     Davidson diagonalization with overlap
     ethr =  5.02E-06,  avg # of iterations =  3.0

     negative rho (up, down):  9.109E-04 0.000E+00

     total cpu time spent up to now is      758.5 secs

     total energy              =    -259.41037698 Ry
     estimated scf accuracy    <       0.00065445 Ry

     iteration #  3     ecut=    60.00 Ry     beta= 0.70
     Davidson diagonalization with overlap
     ethr =  1.26E-06,  avg # of iterations =  2.0

     negative rho (up, down):  9.051E-04 0.000E+00

     total cpu time spent up to now is      807.2 secs

     total energy              =    -259.41052904 Ry
     estimated scf accuracy    <       0.00007506 Ry

     iteration #  4     ecut=    60.00 Ry     beta= 0.70
     Davidson diagonalization with overlap
     ethr =  1.44E-07,  avg # of iterations =  2.0

     negative rho (up, down):  9.036E-04 0.000E+00

     total cpu time spent up to now is      856.6 secs

     total energy              =    -259.41054762 Ry
     estimated scf accuracy    <       0.00001356 Ry

     iteration #  5     ecut=    60.00 Ry     beta= 0.70
     Davidson diagonalization with overlap
     ethr =  2.61E-08,  avg # of iterations =  2.0

     negative rho (up, down):  9.036E-04 0.000E+00

     total cpu time spent up to now is      903.6 secs

     End of self-consistent calculation

          k = 0.0000 0.0000 0.0000 (423701 PWs)   bands (ev):

   -27.3678 -24.2971 -20.4909 -19.5587 -18.5899 -16.7652 -16.6122 -16.1532
   -14.9532 -14.0181 -12.7929 -12.3299 -12.0091 -11.7951 -11.2539 -11.0838
   -10.6917 -10.2993  -9.9318  -9.5170  -8.9115  -7.8193  -6.8715  -4.5705
    -4.5479  -4.3687  -1.3157  -1.1898  -0.8072  -0.5401  -0.1819

     the Fermi energy is    -3.0688 ev

!    total energy              =    -259.41054998 Ry
     total all-electron energy =     -1612.261268 Ry
     estimated scf accuracy    <       0.00000077 Ry
     smearing contrib. (-TS)   =       0.00000000 Ry
     internal energy E=F+TS    =    -259.41054998 Ry

     The total energy is F=E-TS. E is the sum of the following terms:
     one-electron contribution =    -817.17052701 Ry
     hartree contribution      =     414.57660608 Ry
     xc contribution           =     -58.06826735 Ry
     ewald contribution        =     299.63827212 Ry
     one-center paw contrib.   =     -98.38663382 Ry

     convergence has been achieved in   5 iterations

     negative rho (up, down):  9.036E-04 0.000E+00

     Forces acting on atoms (cartesian axes, Ry/au):

     atom    1 type  1   force =    -0.02860822    0.03611069   -0.00737103
     atom    2 type  1   force =     0.03722514    0.03467728    0.01057800
     atom    3 type  2   force =     0.00046709    0.00045746    0.00354384
     atom    4 type  2   force =    -0.01109614   -0.08296619   -0.03472335
     atom    5 type  2   force =    -0.00368429    0.02208514    0.00507810
     atom    6 type  2   force =     0.00857129    0.01507196    0.00716872
     atom    7 type  2   force =    -0.00610579   -0.00166761    0.00396464
     atom    8 type  2   force =    -0.00116910   -0.00242475   -0.00030938
     atom    9 type  3   force =     0.00200567    0.00390351   -0.00286164
     atom   10 type  3   force =     0.00232820   -0.00872166   -0.00448951
     atom   11 type  3   force =    -0.00096326    0.00257695    0.00537081
     atom   12 type  3   force =     0.00697819    0.01407516    0.00354884
     atom   13 type  3   force =    -0.00191078    0.01676568    0.00271731
     atom   14 type  3   force =     0.00145362   -0.00599006   -0.00038944
     atom   15 type  3   force =     0.00081366    0.00007679    0.00132089
     atom   16 type  3   force =    -0.00180417    0.00448144    0.00290147
     atom   17 type  3   force =    -0.00521672   -0.00251657    0.00011938
     atom   18 type  3   force =     0.00492453    0.00115817   -0.00193680
     atom   19 type  3   force =     0.00343078   -0.00061479    0.00213951
     atom   20 type  4   force =    -0.00763969   -0.04653862    0.00362965
     The non-local contrib.  to forces
     atom    1 type  1   force =     0.21323812    0.05673611    0.04097823
     atom    2 type  1   force =    -0.12836011    0.08886618   -0.01881789
     atom    3 type  2   force =     0.41836160    0.13293615    0.12678282
     atom    4 type  2   force =     0.07936200    0.74023872    0.16534625
     atom    5 type  2   force =    -0.15039009   -0.27343194   -0.05561734
     atom    6 type  2   force =     0.08174810   -0.31494701   -0.02317824
     atom    7 type  2   force =     0.01818558    0.06859273   -0.09720162
     atom    8 type  2   force =    -0.38018118    0.25681861   -0.03193834
     atom    9 type  3   force =     0.03067326   -0.05987182    0.03660557
     atom   10 type  3   force =     0.00381843    0.06212248    0.05000497
     atom   11 type  3   force =     0.00676799    0.05814560    0.01024430
     atom   12 type  3   force =     0.04924691   -0.06466493   -0.00098109
     atom   13 type  3   force =    -0.06277193   -0.04897597   -0.01783782
     atom   14 type  3   force =    -0.02860223    0.06167044   -0.03577831
     atom   15 type  3   force =     0.07088929    0.01470630    0.01563451
     atom   16 type  3   force =    -0.00146080   -0.05672120   -0.04811052
     atom   17 type  3   force =     0.00720039    0.07816674    0.01274208
     atom   18 type  3   force =    -0.04931462   -0.02889996    0.05170673
     atom   19 type  3   force =    -0.02743086   -0.00985137   -0.07129480
     atom   20 type  4   force =     0.00511776    0.02104527   -0.00961578
     The ionic contribution  to forces
     atom    1 type  1   force =    -5.50185962    1.71095065   -2.28064787
     atom    2 type  1   force =     8.05493407   -0.78908573    0.83783765
     atom    3 type  2   force =    -6.95157213    0.11622743   -4.28317365
     atom    4 type  2   force =     0.11212665   -7.91531353   -2.28596505
     atom    5 type  2   force =    -2.06037577   10.92199367    0.70549526
     atom    6 type  2   force =     5.75221677    9.45123109    2.07665619
     atom    7 type  2   force =    -6.46600694   -0.92022375    4.03350425
     atom    8 type  2   force =     8.66992866   -2.97690489    0.80216717
     atom    9 type  3   force =    -2.16913598    2.36935465   -2.04059080
     atom   10 type  3   force =    -1.32438443   -2.17246583   -2.63192863
     atom   11 type  3   force =     0.02361153   -2.29701867   -0.88277596
     atom   12 type  3   force =    -1.64808208    3.54080476    0.11082650
     atom   13 type  3   force =     2.61506722    2.79217106    0.81503478
     atom   14 type  3   force =    -0.34407772   -2.32007150    2.06215193
     atom   15 type  3   force =    -3.39004472   -0.59346423   -0.11678826
     atom   16 type  3   force =    -1.15074186    1.98787317    2.42941082
     atom   17 type  3   force =     1.27946762   -3.05771853   -0.34058281
     atom   18 type  3   force =     2.98529417    0.68751530   -1.85044227
     atom   19 type  3   force =     2.20651351   -0.00815782    2.79220615
     atom   20 type  4   force =    -0.69287894  -10.52769730    0.04760461
     The local contribution  to forces
     atom    1 type  1   force =     5.26002638   -1.73078737    2.23243576
     atom    2 type  1   force =    -7.88747786    0.73562331   -0.80803254
     atom    3 type  2   force =     6.54117201   -0.24658160    4.16332878
     atom    4 type  2   force =    -0.20174452    7.09878170    2.08772735
     atom    5 type  2   force =     2.20254285  -10.62812873   -0.64550899
     atom    6 type  2   force =    -5.82075617   -9.12463858   -2.04575862
     atom    7 type  2   force =     6.44197128    0.85110651   -3.93436821
     atom    8 type  2   force =    -8.29821840    2.72236227   -0.77112459
     atom    9 type  3   force =     2.14038015   -2.30556632    2.00109507
     atom   10 type  3   force =     1.32284566    2.10156992    2.57741210
     atom   11 type  3   force =    -0.03130764    2.24151665    0.87792277
     atom   12 type  3   force =     1.60575715   -3.46192862   -0.10626411
     atom   13 type  3   force =    -2.55417640   -2.72641816   -0.79444962
     atom   14 type  3   force =     0.37409332    2.25237894   -2.02672514
     atom   15 type  3   force =     3.31993613    0.57881974    0.10249682
     atom   16 type  3   force =     1.15034385   -1.92667980   -2.37835117
     atom   17 type  3   force =    -1.29188021    2.97704034    0.32798061
     atom   18 type  3   force =    -2.93105566   -0.65747327    1.79681901
     atom   19 type  3   force =    -2.17565435    0.01738042   -2.71876224
     atom   20 type  4   force =     0.67953408   10.45616653   -0.03420575
     The core correction contribution to forces
     atom    1 type  1   force =     0.00040433   -0.00159822   -0.00011222
     atom    2 type  1   force =    -0.00198679   -0.00109954   -0.00042685
     atom    3 type  2   force =    -0.00791883   -0.00232983   -0.00348484
     atom    4 type  2   force =    -0.00049417   -0.00673290   -0.00177744
     atom    5 type  2   force =     0.00479677    0.00183512    0.00085173
     atom    6 type  2   force =    -0.00420570    0.00339706   -0.00040797
     atom    7 type  2   force =    -0.00054115   -0.00125552    0.00215290
     atom    8 type  2   force =     0.00738066   -0.00477574    0.00063818
     atom    9 type  3   force =     0.00000000    0.00000000    0.00000000
     atom   10 type  3   force =     0.00000000    0.00000000    0.00000000
     atom   11 type  3   force =     0.00000000    0.00000000    0.00000000
     atom   12 type  3   force =     0.00000000    0.00000000    0.00000000
     atom   13 type  3   force =     0.00000000    0.00000000    0.00000000
     atom   14 type  3   force =     0.00000000    0.00000000    0.00000000
     atom   15 type  3   force =     0.00000000    0.00000000    0.00000000
     atom   16 type  3   force =     0.00000000    0.00000000    0.00000000
     atom   17 type  3   force =     0.00000000    0.00000000    0.00000000
     atom   18 type  3   force =     0.00000000    0.00000000    0.00000000
     atom   19 type  3   force =     0.00000000    0.00000000    0.00000000
     atom   20 type  4   force =     0.00041631    0.00271037    0.00000679
     The Hubbard contrib.    to forces
     atom    1 type  1   force =     0.00000000    0.00000000    0.00000000
     atom    2 type  1   force =     0.00000000    0.00000000    0.00000000
     atom    3 type  2   force =     0.00000000    0.00000000    0.00000000
     atom    4 type  2   force =     0.00000000    0.00000000    0.00000000
     atom    5 type  2   force =     0.00000000    0.00000000    0.00000000
     atom    6 type  2   force =     0.00000000    0.00000000    0.00000000
     atom    7 type  2   force =     0.00000000    0.00000000    0.00000000
     atom    8 type  2   force =     0.00000000    0.00000000    0.00000000
     atom    9 type  3   force =     0.00000000    0.00000000    0.00000000
     atom   10 type  3   force =     0.00000000    0.00000000    0.00000000
     atom   11 type  3   force =     0.00000000    0.00000000    0.00000000
     atom   12 type  3   force =     0.00000000    0.00000000    0.00000000
     atom   13 type  3   force =     0.00000000    0.00000000    0.00000000
     atom   14 type  3   force =     0.00000000    0.00000000    0.00000000
     atom   15 type  3   force =     0.00000000    0.00000000    0.00000000
     atom   16 type  3   force =     0.00000000    0.00000000    0.00000000
     atom   17 type  3   force =     0.00000000    0.00000000    0.00000000
     atom   18 type  3   force =     0.00000000    0.00000000    0.00000000
     atom   19 type  3   force =     0.00000000    0.00000000    0.00000000
     atom   20 type  4   force =     0.00000000    0.00000000    0.00000000
     The SCF correction term to forces
     atom    1 type  1   force =    -0.00042434    0.00080668   -0.00001207
     atom    2 type  1   force =     0.00010892    0.00037022    0.00003048
     atom    3 type  2   force =     0.00041754    0.00020247    0.00010358
     atom    4 type  2   force =    -0.00035301    0.00005698   -0.00004161
     atom    5 type  2   force =    -0.00026496   -0.00018582   -0.00012970
     atom    6 type  2   force =    -0.00043863    0.00002656   -0.00012978
     atom    7 type  2   force =     0.00027854    0.00010958   -0.00010983
     atom    8 type  2   force =    -0.00008574    0.00007216   -0.00003894
     atom    9 type  3   force =     0.00008134   -0.00001584    0.00004138
     atom   10 type  3   force =     0.00004163    0.00004892    0.00003491
     atom   11 type  3   force =    -0.00004203   -0.00006947   -0.00000745
     atom   12 type  3   force =     0.00004930   -0.00013889   -0.00001961
     atom   13 type  3   force =    -0.00003657   -0.00001408   -0.00001718
     atom   14 type  3   force =     0.00003334    0.00002923   -0.00002505
     atom   15 type  3   force =     0.00002606    0.00001214   -0.00000933
     atom   16 type  3   force =     0.00004774    0.00000642   -0.00003480
     atom   17 type  3   force =    -0.00001143   -0.00000798   -0.00000764
     atom   18 type  3   force =    -0.00000627    0.00001325   -0.00000742
     atom   19 type  3   force =    -0.00000442    0.00001114    0.00000325
     atom   20 type  4   force =     0.00016419    0.00123367   -0.00014737

     Total force =     0.130961     Total SCF correction =     0.001846


     Computing stress (Cartesian axis) and pressure


     negative rho (up, down):  9.036E-04 0.000E+00
          total   stress  (Ry/bohr**3)                   (kbar)     P=        0.78
   0.00000289   0.00000172   0.00000021            0.43        0.25        0.03
   0.00000172   0.00001223   0.00000103            0.25        1.80        0.15
   0.00000021   0.00000103   0.00000081            0.03        0.15        0.12

     Energy error            =      6.6E-03 Ry
     Gradient error          =      8.3E-02 Ry/Bohr

     number of scf cycles    =   2
     number of bfgs steps    =   1

     energy             old  =    -259.4039334086 Ry
     energy             new  =    -259.4105499817 Ry

     CASE: energy            _new < energy            _old

     new trust radius        =       0.0938042908 bohr
     new conv_thr            =       0.0000006617 Ry


ATOMIC_POSITIONS (angstrom)
N             9.5655120196        9.9879417317        9.6380874839
N            11.6899314292        9.6805801258        9.9692138088
C             8.1454026048        9.6867582129        9.3637498946
C            10.5437582250        9.0759849755        9.6473752634
C            10.1087708957       11.2209113386        9.9246444255
C            11.4486514123       11.0307316461       10.1261207549
C             7.3846215141        9.3901491353       10.6403842505
C            12.9803744103        9.0145644576       10.0906336098
H             7.7466022057       10.5712857142        8.8493916935
H             8.1233782377        8.8427621054        8.6738930232
H            10.4037308001        7.9365282569        9.4971468676
H             9.4588890691       12.0791634478        9.9360663172
H            12.2737346366       11.6804306601       10.3596454191
H             7.8028608548        8.5113854412       11.1424847292
H             6.3353569081        9.1834705334       10.3849143434
H             7.4149671515       10.2442696291       11.3283218574
H            12.8598387289        7.9431025852        9.9085404772
H            13.6691624275        9.4476306866        9.3567970545
H            13.3602255753        9.1774631590       11.1064544395
Cl           10.0830558938        6.2512861576        9.8129842867



     Writing config-only to output data dir ./plusCL3.save/
     NEW-OLD atomic charge density approx. for the potential

     negative rho (up, down):  8.929E-04 0.000E+00

     total cpu time spent up to now is     1054.3 secs

     Self-consistent Calculation

     iteration #  1     ecut=    60.00 Ry     beta= 0.70
     Davidson diagonalization with overlap
     ethr =  1.00E-06,  avg # of iterations =  9.0

     negative rho (up, down):  8.856E-04 0.000E+00

     total cpu time spent up to now is     1111.6 secs

     total energy              =    -259.41853507 Ry
     estimated scf accuracy    <       0.00277941 Ry

     iteration #  2     ecut=    60.00 Ry     beta= 0.70
     Davidson diagonalization with overlap
     ethr =  5.35E-06,  avg # of iterations =  5.0

     negative rho (up, down):  9.116E-04 0.000E+00

     total cpu time spent up to now is     1162.1 secs

     total energy              =    -259.41903456 Ry
     estimated scf accuracy    <       0.00215738 Ry

     iteration #  3     ecut=    60.00 Ry     beta= 0.70
     Davidson diagonalization with overlap
     ethr =  4.15E-06,  avg # of iterations =  2.0

     negative rho (up, down):  9.000E-04 0.000E+00

     total cpu time spent up to now is     1210.4 secs

     total energy              =    -259.41950833 Ry
     estimated scf accuracy    <       0.00006710 Ry

     iteration #  4     ecut=    60.00 Ry     beta= 0.70
     Davidson diagonalization with overlap
     ethr =  1.29E-07,  avg # of iterations =  3.0

     negative rho (up, down):  8.977E-04 0.000E+00

     total cpu time spent up to now is     1259.6 secs

     total energy              =    -259.41952979 Ry
     estimated scf accuracy    <       0.00001240 Ry

     iteration #  5     ecut=    60.00 Ry     beta= 0.70
     Davidson diagonalization with overlap
     ethr =  2.38E-08,  avg # of iterations =  2.0

     negative rho (up, down):  8.979E-04 0.000E+00

     total cpu time spent up to now is     1308.3 secs

     total energy              =    -259.41953124 Ry
     estimated scf accuracy    <       0.00000139 Ry

     iteration #  6     ecut=    60.00 Ry     beta= 0.70
     Davidson diagonalization with overlap
     ethr =  2.68E-09,  avg # of iterations =  3.0

     negative rho (up, down):  8.981E-04 0.000E+00

     total cpu time spent up to now is     1355.5 secs

     End of self-consistent calculation

          k = 0.0000 0.0000 0.0000 (423701 PWs)   bands (ev):

   -27.1471 -24.2159 -20.4767 -19.4681 -18.5781 -16.7670 -16.5567 -16.0238
   -14.9732 -13.9651 -12.7031 -12.3054 -11.9950 -11.7973 -11.2079 -11.1005
   -10.7201 -10.3147  -9.9128  -9.5338  -8.9550  -7.8177  -6.8338  -4.5507
    -4.5314  -4.4240  -1.3962  -1.3192  -0.8212  -0.5536  -0.1887

     the Fermi energy is    -3.0364 ev

!    total energy              =    -259.41953149 Ry
     total all-electron energy =     -1612.270249 Ry
     estimated scf accuracy    <       0.00000016 Ry
     smearing contrib. (-TS)   =       0.00000000 Ry
     internal energy E=F+TS    =    -259.41953149 Ry

     The total energy is F=E-TS. E is the sum of the following terms:
     one-electron contribution =    -811.66414600 Ry
     hartree contribution      =     411.81579302 Ry
     xc contribution           =     -57.96997633 Ry
     ewald contribution        =     296.78279446 Ry
     one-center paw contrib.   =     -98.38399664 Ry

     convergence has been achieved in   6 iterations

     negative rho (up, down):  8.981E-04 0.000E+00

     Forces acting on atoms (cartesian axes, Ry/au):

     atom    1 type  1   force =     0.00659018   -0.00400832   -0.00824296
     atom    2 type  1   force =    -0.01085533    0.00565579   -0.00712821
     atom    3 type  2   force =     0.01183623    0.01488696    0.00331064
     atom    4 type  2   force =    -0.00338430   -0.03056357   -0.01516908
     atom    5 type  2   force =    -0.00112573    0.00990531    0.00305379
     atom    6 type  2   force =     0.00212163    0.00841623    0.00629230
     atom    7 type  2   force =    -0.00775748   -0.00157964    0.00027023
     atom    8 type  2   force =     0.00248231    0.00663903    0.00208929
     atom    9 type  3   force =    -0.00334953   -0.00117794   -0.00187444
     atom   10 type  3   force =     0.00097676   -0.00742542   -0.00299937
     atom   11 type  3   force =    -0.00066485    0.00667072    0.00572019
     atom   12 type  3   force =     0.00572898    0.01628091    0.00411414
     atom   13 type  3   force =    -0.00087909    0.01722746    0.00354915
     atom   14 type  3   force =     0.00042795   -0.00367107    0.00006165
     atom   15 type  3   force =     0.00093747   -0.00029868    0.00370752
     atom   16 type  3   force =    -0.00143801    0.00113422    0.00132513
     atom   17 type  3   force =    -0.00532059   -0.00137072   -0.00009789
     atom   18 type  3   force =     0.00473331   -0.00209403    0.00047439
     atom   19 type  3   force =     0.00418703   -0.00247286   -0.00088887
     atom   20 type  4   force =    -0.00524693   -0.03215437    0.00243242
     The non-local contrib.  to forces
     atom    1 type  1   force =     0.23171074    0.03555145    0.03776932
     atom    2 type  1   force =    -0.13589932    0.07690428   -0.04842686
     atom    3 type  2   force =     0.42681239    0.14931406    0.12337191
     atom    4 type  2   force =     0.08425588    0.77044387    0.18907050
     atom    5 type  2   force =    -0.14843013   -0.28553596   -0.06023411
     atom    6 type  2   force =     0.07520908   -0.32306143   -0.02382107
     atom    7 type  2   force =     0.01731033    0.06921095   -0.10436393
     atom    8 type  2   force =    -0.37376354    0.26878213   -0.02807152
     atom    9 type  3   force =     0.02881484   -0.06026213    0.03641935
     atom   10 type  3   force =     0.00255054    0.06204008    0.05010563
     atom   11 type  3   force =     0.00673798    0.05662594    0.00866332
     atom   12 type  3   force =     0.04927278   -0.06512761   -0.00084576
     atom   13 type  3   force =    -0.06265147   -0.04951640   -0.01768627
     atom   14 type  3   force =    -0.02869977    0.06178562   -0.03507232
     atom   15 type  3   force =     0.07062928    0.01456501    0.01618718
     atom   16 type  3   force =    -0.00139161   -0.05676254   -0.04752678
     atom   17 type  3   force =     0.00785285    0.07812255    0.01267939
     atom   18 type  3   force =    -0.04873240   -0.02908783    0.05137027
     atom   19 type  3   force =    -0.02697459   -0.01004509   -0.07089922
     atom   20 type  4   force =     0.00712926    0.03438853   -0.01007603
     The ionic contribution  to forces
     atom    1 type  1   force =    -5.28353658    1.66875736   -2.27730054
     atom    2 type  1   force =     7.72618431   -0.80491875    0.89058819
     atom    3 type  2   force =    -6.90020465    0.02319882   -4.25351426
     atom    4 type  2   force =     0.17048591   -7.73948250   -2.52657736
     atom    5 type  2   force =    -2.00529355   10.78148772    0.76377133
     atom    6 type  2   force =     5.64537497    9.35018197    2.09072861
     atom    7 type  2   force =    -6.39644418   -0.92673510    4.08788162
     atom    8 type  2   force =     8.60972738   -3.04162894    0.78509619
     atom    9 type  3   force =    -2.14136954    2.36709318   -2.03615345
     atom   10 type  3   force =    -1.28552823   -2.17433331   -2.61976939
     atom   11 type  3   force =     0.01828146   -2.26665413   -0.82660422
     atom   12 type  3   force =    -1.64269554    3.53771999    0.11131633
     atom   13 type  3   force =     2.60281485    2.79438854    0.81113730
     atom   14 type  3   force =    -0.32742073   -2.32072966    2.04191039
     atom   15 type  3   force =    -3.38216016   -0.59233453   -0.12306095
     atom   16 type  3   force =    -1.14277482    1.98384363    2.41408100
     atom   17 type  3   force =     1.24508961   -3.05300959   -0.33885678
     atom   18 type  3   force =     2.96960610    0.68281188   -1.84371776
     atom   19 type  3   force =     2.19175541   -0.01271244    2.78203647
     atom   20 type  4   force =    -0.67189203  -10.25694416    0.06700726
     The local contribution  to forces
     atom    1 type  1   force =     5.05856082   -1.70706389    2.23141744
     atom    2 type  1   force =    -7.60001826    0.73440951   -0.84944588
     atom    3 type  2   force =     6.49330240   -0.15497043    4.13692475
     atom    4 type  2   force =    -0.25764589    6.94656262    2.32441498
     atom    5 type  2   force =     2.14774058  -10.48817934   -0.70138054
     atom    6 type  2   force =    -5.71479902   -9.02199493   -2.06022239
     atom    7 type  2   force =     6.37197777    0.85728591   -3.98534655
     atom    8 type  2   force =    -8.24046335    2.78430639   -0.75548998
     atom    9 type  3   force =     2.10922313   -2.30800144    1.99787014
     atom   10 type  3   force =     1.28395742    2.10487638    2.56666650
     atom   11 type  3   force =    -0.02571990    2.21664028    0.82365626
     atom   12 type  3   force =     1.59916465   -3.45636217   -0.10636029
     atom   13 type  3   force =    -2.54104107   -2.72760980   -0.78989550
     atom   14 type  3   force =     0.35654863    2.25529281   -2.00678664
     atom   15 type  3   force =     3.31248688    0.57747786    0.11058369
     atom   16 type  3   force =     1.14274334   -1.92595200   -2.36524668
     atom   17 type  3   force =    -1.25824563    2.97347116    0.32607513
     atom   18 type  3   force =    -2.91609647   -0.65581531    1.79280109
     atom   19 type  3   force =    -2.16055994    0.02027966   -2.71199585
     atom   20 type  4   force =     0.65919262   10.18872196   -0.05451052
     The core correction contribution to forces
     atom    1 type  1   force =    -0.00036500   -0.00096395   -0.00010267
     atom    2 type  1   force =    -0.00122328   -0.00069810    0.00014510
     atom    3 type  2   force =    -0.00802895   -0.00255562   -0.00341476
     atom    4 type  2   force =    -0.00078727   -0.00808962   -0.00215464
     atom    5 type  2   force =     0.00460931    0.00219374    0.00088132
     atom    6 type  2   force =    -0.00391282    0.00353844   -0.00037927
     atom    7 type  2   force =    -0.00054378   -0.00128440    0.00211571
     atom    8 type  2   force =     0.00717850   -0.00490871    0.00058513
     atom    9 type  3   force =     0.00000000    0.00000000    0.00000000
     atom   10 type  3   force =     0.00000000    0.00000000    0.00000000
     atom   11 type  3   force =     0.00000000    0.00000000    0.00000000
     atom   12 type  3   force =     0.00000000    0.00000000    0.00000000
     atom   13 type  3   force =     0.00000000    0.00000000    0.00000000
     atom   14 type  3   force =     0.00000000    0.00000000    0.00000000
     atom   15 type  3   force =     0.00000000    0.00000000    0.00000000
     atom   16 type  3   force =     0.00000000    0.00000000    0.00000000
     atom   17 type  3   force =     0.00000000    0.00000000    0.00000000
     atom   18 type  3   force =     0.00000000    0.00000000    0.00000000
     atom   19 type  3   force =     0.00000000    0.00000000    0.00000000
     atom   20 type  4   force =     0.00024809    0.00162039    0.00007283
     The Hubbard contrib.    to forces
     atom    1 type  1   force =     0.00000000    0.00000000    0.00000000
     atom    2 type  1   force =     0.00000000    0.00000000    0.00000000
     atom    3 type  2   force =     0.00000000    0.00000000    0.00000000
     atom    4 type  2   force =     0.00000000    0.00000000    0.00000000
     atom    5 type  2   force =     0.00000000    0.00000000    0.00000000
     atom    6 type  2   force =     0.00000000    0.00000000    0.00000000
     atom    7 type  2   force =     0.00000000    0.00000000    0.00000000
     atom    8 type  2   force =     0.00000000    0.00000000    0.00000000
     atom    9 type  3   force =     0.00000000    0.00000000    0.00000000
     atom   10 type  3   force =     0.00000000    0.00000000    0.00000000
     atom   11 type  3   force =     0.00000000    0.00000000    0.00000000
     atom   12 type  3   force =     0.00000000    0.00000000    0.00000000
     atom   13 type  3   force =     0.00000000    0.00000000    0.00000000
     atom   14 type  3   force =     0.00000000    0.00000000    0.00000000
     atom   15 type  3   force =     0.00000000    0.00000000    0.00000000
     atom   16 type  3   force =     0.00000000    0.00000000    0.00000000
     atom   17 type  3   force =     0.00000000    0.00000000    0.00000000
     atom   18 type  3   force =     0.00000000    0.00000000    0.00000000
     atom   19 type  3   force =     0.00000000    0.00000000    0.00000000
     atom   20 type  4   force =     0.00000000    0.00000000    0.00000000
     The SCF correction term to forces
     atom    1 type  1   force =     0.00022226   -0.00028988   -0.00002895
     atom    2 type  1   force =     0.00010330   -0.00004175    0.00000881
     atom    3 type  2   force =    -0.00004289   -0.00010046   -0.00005943
     atom    4 type  2   force =     0.00030914    0.00000145    0.00007500
     atom    5 type  2   force =     0.00025014   -0.00006146    0.00001335
     atom    6 type  2   force =     0.00025150   -0.00024841   -0.00001602
     atom    7 type  2   force =    -0.00005553   -0.00005759   -0.00001906
     atom    8 type  2   force =    -0.00019462    0.00008757   -0.00003298
     atom    9 type  3   force =    -0.00001588   -0.00000814   -0.00001293
     atom   10 type  3   force =    -0.00000090   -0.00000917   -0.00000455
     atom   11 type  3   force =     0.00003768    0.00005804    0.00000239
     atom   12 type  3   force =    -0.00001085    0.00005011    0.00000142
     atom   13 type  3   force =     0.00000067   -0.00003548   -0.00000883
     atom   14 type  3   force =     0.00000189   -0.00002043    0.00000778
     atom   15 type  3   force =    -0.00001646   -0.00000761   -0.00000485
     atom   16 type  3   force =    -0.00001285    0.00000453    0.00001514
     atom   17 type  3   force =    -0.00001534    0.00004456    0.00000193
     atom   18 type  3   force =    -0.00004185   -0.00000335    0.00001835
     atom   19 type  3   force =    -0.00003179    0.00000442   -0.00003270
     atom   20 type  4   force =     0.00007720    0.00005831   -0.00006357

     Total force =     0.064682     Total SCF correction =     0.000734


     Computing stress (Cartesian axis) and pressure


     negative rho (up, down):  8.981E-04 0.000E+00
          total   stress  (Ry/bohr**3)                   (kbar)     P=        0.38
  -0.00000013   0.00000131  -0.00000029           -0.02        0.19       -0.04
   0.00000131   0.00000764   0.00000061            0.19        1.12        0.09
  -0.00000029   0.00000061   0.00000029           -0.04        0.09        0.04

     Energy error            =      9.0E-03 Ry
     Gradient error          =      3.2E-02 Ry/Bohr

     number of scf cycles    =   3
     number of bfgs steps    =   2

     energy             old  =    -259.4105499817 Ry
     energy             new  =    -259.4195314879 Ry

     CASE: energy            _new < energy            _old

     new trust radius        =       0.1303407696 bohr
     new conv_thr            =       0.0000003215 Ry


ATOMIC_POSITIONS (angstrom)
N             9.5692608126        9.9949066704        9.6273716552
N            11.6851690051        9.6915637210        9.9658594268
C             8.1415960642        9.6937499527        9.3647235283
C            10.5450724182        9.0650284993        9.6201174562
C            10.1089435152       11.2385056394        9.9307297933
C            11.4525946264       11.0465270084       10.1349478875
C             7.3779779956        9.3881412761       10.6462263940
C            12.9877156529        9.0176425414       10.0922404576
H             7.7465253149       10.5739296144        8.8458033119
H             8.1272380027        8.8330289552        8.6701212227
H            10.3999072892        7.9177087402        9.4995846521
H             9.4666623978       12.1055568714        9.9419705074
H            12.2733334109       11.7086073837       10.3649572538
H             7.8040943858        8.5040290406       11.1417208722
H             6.3347201037        9.1830095474       10.3873075108
H             7.4121107653       10.2489118990       11.3317461176
H            12.8507323932        7.9402650409        9.9085518307
H            13.6768439536        9.4467662691        9.3559345817
H            13.3665362214        9.1750102615       11.1078720213
Cl           10.0717906712        6.1835110680        9.8190635188



     Writing config-only to output data dir ./plusCL3.save/
     NEW-OLD atomic charge density approx. for the potential

     negative rho (up, down):  8.902E-04 0.000E+00

     total cpu time spent up to now is     1503.9 secs

     Self-consistent Calculation

     iteration #  1     ecut=    60.00 Ry     beta= 0.70
     Davidson diagonalization with overlap
     ethr =  1.00E-06,  avg # of iterations =  8.0

     negative rho (up, down):  8.789E-04 0.000E+00

     total cpu time spent up to now is     1561.1 secs

     total energy              =    -259.42408115 Ry
     estimated scf accuracy    <       0.00284583 Ry

     iteration #  2     ecut=    60.00 Ry     beta= 0.70
     Davidson diagonalization with overlap
     ethr =  5.47E-06,  avg # of iterations =  4.0

     negative rho (up, down):  9.027E-04 0.000E+00

     total cpu time spent up to now is     1610.5 secs

     total energy              =    -259.42461930 Ry
     estimated scf accuracy    <       0.00151868 Ry

     iteration #  3     ecut=    60.00 Ry     beta= 0.70
     Davidson diagonalization with overlap
     ethr =  2.92E-06,  avg # of iterations =  3.0

     negative rho (up, down):  8.931E-04 0.000E+00

     total cpu time spent up to now is     1658.9 secs

     total energy              =    -259.42497210 Ry
     estimated scf accuracy    <       0.00010000 Ry

     iteration #  4     ecut=    60.00 Ry     beta= 0.70
     Davidson diagonalization with overlap
     ethr =  1.92E-07,  avg # of iterations =  2.0

     negative rho (up, down):  8.893E-04 0.000E+00

     total cpu time spent up to now is     1707.5 secs

     total energy              =    -259.42499853 Ry
     estimated scf accuracy    <       0.00001486 Ry

     iteration #  5     ecut=    60.00 Ry     beta= 0.70
     Davidson diagonalization with overlap
     ethr =  2.86E-08,  avg # of iterations =  2.0

     negative rho (up, down):  8.894E-04 0.000E+00

     total cpu time spent up to now is     1756.4 secs

     total energy              =    -259.42500106 Ry
     estimated scf accuracy    <       0.00000145 Ry

     iteration #  6     ecut=    60.00 Ry     beta= 0.70
     Davidson diagonalization with overlap
     ethr =  2.80E-09,  avg # of iterations =  4.0

     negative rho (up, down):  8.895E-04 0.000E+00

     total cpu time spent up to now is     1803.3 secs

     End of self-consistent calculation

          k = 0.0000 0.0000 0.0000 (423701 PWs)   bands (ev):

   -27.0301 -24.0903 -20.4139 -19.4816 -18.5082 -16.7479 -16.4612 -15.9666
   -14.9966 -13.9313 -12.6477 -12.2825 -11.9595 -11.7692 -11.1650 -11.0806
   -10.8307 -10.3217  -9.9169  -9.5327  -8.9637  -7.8073  -6.8941  -4.5130
    -4.4923  -4.4373  -1.5234  -1.4028  -0.8386  -0.5700  -0.2106

     the Fermi energy is    -3.0344 ev

!    total energy              =    -259.42500143 Ry
     total all-electron energy =     -1612.275719 Ry
     estimated scf accuracy    <       0.00000008 Ry
     smearing contrib. (-TS)   =       0.00000000 Ry
     internal energy E=F+TS    =    -259.42500143 Ry

     The total energy is F=E-TS. E is the sum of the following terms:
     one-electron contribution =    -805.56482209 Ry
     hartree contribution      =     408.74069974 Ry
     xc contribution           =     -57.85997943 Ry
     ewald contribution        =     293.64035708 Ry
     one-center paw contrib.   =     -98.38125673 Ry

     convergence has been achieved in   6 iterations

     negative rho (up, down):  8.895E-04 0.000E+00

     Forces acting on atoms (cartesian axes, Ry/au):

     atom    1 type  1   force =     0.00497579   -0.00360951   -0.00675817
     atom    2 type  1   force =     0.00512582   -0.00878035   -0.00921835
     atom    3 type  2   force =     0.01574523   -0.00446508   -0.00457284
     atom    4 type  2   force =    -0.00110044    0.00644243    0.00240121
     atom    5 type  2   force =     0.00290031   -0.01056021   -0.00061280
     atom    6 type  2   force =    -0.01090921   -0.00340529    0.00158224
     atom    7 type  2   force =     0.00686243    0.00318131   -0.00150628
     atom    8 type  2   force =    -0.01198417    0.00230431   -0.00328376
     atom    9 type  3   force =    -0.00621387    0.00049802   -0.00258793
     atom   10 type  3   force =    -0.00054556    0.00819412    0.00825324
     atom   11 type  3   force =    -0.00057710    0.00479721    0.00452355
     atom   12 type  3   force =     0.00502614    0.01051493    0.00367275
     atom   13 type  3   force =    -0.00260028    0.01025425    0.00304358
     atom   14 type  3   force =    -0.00218531    0.00148499   -0.00132161
     atom   15 type  3   force =    -0.00483777   -0.00150722    0.00272819
     atom   16 type  3   force =    -0.00220965   -0.00394157    0.00006151
     atom   17 type  3   force =    -0.00239687    0.00807872    0.00136766
     atom   18 type  3   force =     0.00395927   -0.00253848    0.00105838
     atom   19 type  3   force =     0.00339167   -0.00130826    0.00017243
     atom   20 type  4   force =    -0.00242644   -0.01563433    0.00099700
     The non-local contrib.  to forces
     atom    1 type  1   force =     0.21667964    0.03031306    0.04145644
     atom    2 type  1   force =    -0.11598902    0.07048345   -0.06189017
     atom    3 type  2   force =     0.42964247    0.12565056    0.11179727
     atom    4 type  2   force =     0.08180447    0.77536705    0.20390104
     atom    5 type  2   force =    -0.14742939   -0.30193935   -0.06935383
     atom    6 type  2   force =     0.06818843   -0.33251135   -0.03119398
     atom    7 type  2   force =     0.03528150    0.07524924   -0.10752795
     atom    8 type  2   force =    -0.38338764    0.26160827   -0.03372248
     atom    9 type  3   force =     0.02867544   -0.06064495    0.03718049
     atom   10 type  3   force =     0.00183709    0.05985371    0.04760664
     atom   11 type  3   force =     0.00711707    0.05721318    0.00681790
     atom   12 type  3   force =     0.04810823   -0.06543430   -0.00085833
     atom   13 type  3   force =    -0.06144785   -0.05014060   -0.01718056
     atom   14 type  3   force =    -0.02885128    0.06129826   -0.03402710
     atom   15 type  3   force =     0.07162692    0.01473494    0.01681607
     atom   16 type  3   force =    -0.00170456   -0.05657667   -0.04660913
     atom   17 type  3   force =     0.00886181    0.07640318    0.01241009
     atom   18 type  3   force =    -0.04869834   -0.02883750    0.05155178
     atom   19 type  3   force =    -0.02708922   -0.00965972   -0.07129636
     atom   20 type  4   force =     0.00949146    0.04977746   -0.01005639
     The ionic contribution  to forces
     atom    1 type  1   force =    -5.12472042    1.68595566   -2.33131708
     atom    2 type  1   force =     7.61330393   -0.81679482    0.90767576
     atom    3 type  2   force =    -6.85970576    0.00582519   -4.16925109
     atom    4 type  2   force =     0.21857306   -7.74997115   -2.81006681
     atom    5 type  2   force =    -2.06200981   10.60224390    0.83048072
     atom    6 type  2   force =     5.62491011    9.21084690    2.17897852
     atom    7 type  2   force =    -6.29478412   -0.94089250    4.08258177
     atom    8 type  2   force =     8.46458683   -2.99910394    0.78818883
     atom    9 type  3   force =    -2.13370020    2.36045596   -2.04097054
     atom   10 type  3   force =    -1.26074304   -2.14165733   -2.55960758
     atom   11 type  3   force =     0.00112521   -2.30236649   -0.75250854
     atom   12 type  3   force =    -1.61827719    3.51497103    0.11458567
     atom   13 type  3   force =     2.56935826    2.78142850    0.79999945
     atom   14 type  3   force =    -0.30723675   -2.30846435    2.00953371
     atom   15 type  3   force =    -3.38824867   -0.59564431   -0.13398716
     atom   16 type  3   force =    -1.12599251    1.97342173    2.39199752
     atom   17 type  3   force =     1.20487163   -3.01634372   -0.33043387
     atom   18 type  3   force =     2.95102592    0.67136574   -1.83785782
     atom   19 type  3   force =     2.17349894   -0.02284953    2.77544959
     atom   20 type  4   force =    -0.64583541   -9.91242645    0.08652895
     The local contribution  to forces
     atom    1 type  1   force =     4.91338403   -1.71896946    2.28332312
     atom    2 type  1   force =    -7.49093949    0.73805102   -0.85539402
     atom    3 type  2   force =     6.45384701   -0.13396772    4.05608794
     atom    4 type  2   force =    -0.30077928    6.98928642    2.61065577
     atom    5 type  2   force =     2.20750629  -10.31350639   -0.76277127
     atom    6 type  2   force =    -5.70020305   -8.88538882   -2.14585357
     atom    7 type  2   force =     6.26736310    0.87023689   -3.97858723
     atom    8 type  2   force =    -8.10056031    2.74453404   -0.75845628
     atom    9 type  3   force =     2.09881105   -2.29930764    2.00120091
     atom   10 type  3   force =     1.25836461    2.08999479    2.52025135
     atom   11 type  3   force =    -0.00883202    2.24991603    0.75021666
     atom   12 type  3   force =     1.57519302   -3.43901829   -0.11005141
     atom   13 type  3   force =    -2.51049567   -2.72100845   -0.77976604
     atom   14 type  3   force =     0.33390666    2.24866271   -1.97682828
     atom   15 type  3   force =     3.31180053    0.57940820    0.11990458
     atom   16 type  3   force =     1.12549542   -1.92079233   -2.34533025
     atom   17 type  3   force =    -1.21611309    2.94798642    0.31938892
     atom   18 type  3   force =    -2.89832951   -0.64506792    1.78735176
     atom   19 type  3   force =    -2.14298660    0.03119559   -2.70396024
     atom   20 type  4   force =     0.63390080    9.84682264   -0.07557375
     The core correction contribution to forces
     atom    1 type  1   force =    -0.00045771   -0.00095709   -0.00021125
     atom    2 type  1   force =    -0.00132078   -0.00059833    0.00038822
     atom    3 type  2   force =    -0.00808021   -0.00195989   -0.00320024
     atom    4 type  2   force =    -0.00083700   -0.00838646   -0.00215540
     atom    5 type  2   force =     0.00473743    0.00273874    0.00106210
     atom    6 type  2   force =    -0.00384386    0.00381174   -0.00029700
     atom    7 type  2   force =    -0.00099532   -0.00139144    0.00208418
     atom    8 type  2   force =     0.00754146   -0.00482012    0.00073556
     atom    9 type  3   force =     0.00000000    0.00000000    0.00000000
     atom   10 type  3   force =     0.00000000    0.00000000    0.00000000
     atom   11 type  3   force =     0.00000000    0.00000000    0.00000000
     atom   12 type  3   force =     0.00000000    0.00000000    0.00000000
     atom   13 type  3   force =     0.00000000    0.00000000    0.00000000
     atom   14 type  3   force =     0.00000000    0.00000000    0.00000000
     atom   15 type  3   force =     0.00000000    0.00000000    0.00000000
     atom   16 type  3   force =     0.00000000    0.00000000    0.00000000
     atom   17 type  3   force =     0.00000000    0.00000000    0.00000000
     atom   18 type  3   force =     0.00000000    0.00000000    0.00000000
     atom   19 type  3   force =     0.00000000    0.00000000    0.00000000
     atom   20 type  4   force =     0.00001260    0.00023445    0.00013864
     The Hubbard contrib.    to forces
     atom    1 type  1   force =     0.00000000    0.00000000    0.00000000
     atom    2 type  1   force =     0.00000000    0.00000000    0.00000000
     atom    3 type  2   force =     0.00000000    0.00000000    0.00000000
     atom    4 type  2   force =     0.00000000    0.00000000    0.00000000
     atom    5 type  2   force =     0.00000000    0.00000000    0.00000000
     atom    6 type  2   force =     0.00000000    0.00000000    0.00000000
     atom    7 type  2   force =     0.00000000    0.00000000    0.00000000
     atom    8 type  2   force =     0.00000000    0.00000000    0.00000000
     atom    9 type  3   force =     0.00000000    0.00000000    0.00000000
     atom   10 type  3   force =     0.00000000    0.00000000    0.00000000
     atom   11 type  3   force =     0.00000000    0.00000000    0.00000000
     atom   12 type  3   force =     0.00000000    0.00000000    0.00000000
     atom   13 type  3   force =     0.00000000    0.00000000    0.00000000
     atom   14 type  3   force =     0.00000000    0.00000000    0.00000000
     atom   15 type  3   force =     0.00000000    0.00000000    0.00000000
     atom   16 type  3   force =     0.00000000    0.00000000    0.00000000
     atom   17 type  3   force =     0.00000000    0.00000000    0.00000000
     atom   18 type  3   force =     0.00000000    0.00000000    0.00000000
     atom   19 type  3   force =     0.00000000    0.00000000    0.00000000
     atom   20 type  4   force =     0.00000000    0.00000000    0.00000000
     The SCF correction term to forces
     atom    1 type  1   force =     0.00009721    0.00004981   -0.00001098
     atom    2 type  1   force =     0.00007816    0.00007983    0.00000026
     atom    3 type  2   force =     0.00004869   -0.00001172   -0.00000831
     atom    4 type  2   force =     0.00014528    0.00014807    0.00006503
     atom    5 type  2   force =     0.00010277   -0.00009562   -0.00003210
     atom    6 type  2   force =     0.00004614   -0.00016226   -0.00005332
     atom    7 type  2   force =     0.00000423   -0.00001938   -0.00005864
     atom    8 type  2   force =    -0.00015754    0.00008756   -0.00003097
     atom    9 type  3   force =     0.00000681   -0.00000386   -0.00000038
     atom   10 type  3   force =     0.00000275    0.00000445    0.00000125
     atom   11 type  3   force =     0.00001961    0.00003598   -0.00000405
     atom   12 type  3   force =     0.00000906   -0.00000201   -0.00000478
     atom   13 type  3   force =    -0.00000804   -0.00002370   -0.00001085
     atom   14 type  3   force =     0.00000304   -0.00001013   -0.00000153
     atom   15 type  3   force =    -0.00000959   -0.00000455   -0.00000689
     atom   16 type  3   force =    -0.00000102    0.00000720    0.00000177
     atom   17 type  3   force =    -0.00001026    0.00003434    0.00000093
     atom   18 type  3   force =    -0.00003184    0.00000270    0.00001106
     atom   19 type  3   force =    -0.00002447    0.00000690   -0.00002216
     atom   20 type  4   force =     0.00001107   -0.00004095   -0.00004204

     Total force =     0.044722     Total SCF correction =     0.000417


     Computing stress (Cartesian axis) and pressure


     negative rho (up, down):  8.895E-04 0.000E+00
          total   stress  (Ry/bohr**3)                   (kbar)     P=       -0.04
  -0.00000154   0.00000052  -0.00000029           -0.23        0.08       -0.04
   0.00000052   0.00000115  -0.00000028            0.08        0.17       -0.04
  -0.00000029  -0.00000028  -0.00000041           -0.04       -0.04       -0.06

     Energy error            =      5.5E-03 Ry
     Gradient error          =      1.6E-02 Ry/Bohr

     number of scf cycles    =   4
     number of bfgs steps    =   3

     energy             old  =    -259.4195314879 Ry
     energy             new  =    -259.4250014279 Ry

     CASE: energy            _new < energy            _old

     new trust radius        =       0.0794529814 bohr
     new conv_thr            =       0.0000001575 Ry


ATOMIC_POSITIONS (angstrom)
N             9.5719093357        9.9984142911        9.6184600700
N            11.6896368639        9.6922973541        9.9597399506
C             8.1484584531        9.6922893790        9.3619699367
C            10.5448454310        9.0634878078        9.6085815845
C            10.1108673702       11.2400502716        9.9331554069
C            11.4475847496       11.0516778958       10.1398183709
C             7.3799200753        9.3893576196       10.6482609542
C            12.9830842326        9.0196281338       10.0905885980
H             7.7429926096       10.5759046504        8.8424689266
H             8.1287535421        8.8341526738        8.6738205071
H            10.3977102544        7.9109453950        9.5032460918
H             9.4733285167       12.1238267776        9.9468765653
H            12.2714585197       11.7275931626       10.3691958894
H             7.8032917675        8.5015868007       11.1404598460
H             6.3311792479        9.1818476214       10.3898266903
H             7.4093774391       10.2486906555       11.3334301758
H            12.8451719342        7.9441948081        9.9094675599
H            13.6827920226        9.4450328653        9.3560378224
H            13.3714406405        9.1732612572       11.1089059762
Cl           10.0650219943        6.1421605795        9.8225390773



     Writing config-only to output data dir ./plusCL3.save/
     NEW-OLD atomic charge density approx. for the potential

     negative rho (up, down):  8.908E-04 0.000E+00

     total cpu time spent up to now is     1953.7 secs

     Self-consistent Calculation

     iteration #  1     ecut=    60.00 Ry     beta= 0.70
     Davidson diagonalization with overlap
     ethr =  1.00E-06,  avg # of iterations =  7.0

     negative rho (up, down):  8.839E-04 0.000E+00

     total cpu time spent up to now is     2008.3 secs

     total energy              =    -259.42646797 Ry
     estimated scf accuracy    <       0.00089410 Ry

     iteration #  2     ecut=    60.00 Ry     beta= 0.70
     Davidson diagonalization with overlap
     ethr =  1.72E-06,  avg # of iterations =  8.0

     negative rho (up, down):  8.882E-04 0.000E+00

     total cpu time spent up to now is     2059.3 secs

     total energy              =    -259.42661759 Ry
     estimated scf accuracy    <       0.00041754 Ry

     iteration #  3     ecut=    60.00 Ry     beta= 0.70
     Davidson diagonalization with overlap
     ethr =  8.03E-07,  avg # of iterations =  3.0

     negative rho (up, down):  8.876E-04 0.000E+00

     total cpu time spent up to now is     2107.4 secs

     total energy              =    -259.42672260 Ry
     estimated scf accuracy    <       0.00003986 Ry

     iteration #  4     ecut=    60.00 Ry     beta= 0.70
     Davidson diagonalization with overlap
     ethr =  7.66E-08,  avg # of iterations =  2.0

     negative rho (up, down):  8.874E-04 0.000E+00

     total cpu time spent up to now is     2156.0 secs

     total energy              =    -259.42673166 Ry
     estimated scf accuracy    <       0.00000474 Ry

     iteration #  5     ecut=    60.00 Ry     beta= 0.70
     Davidson diagonalization with overlap
     ethr =  9.12E-09,  avg # of iterations =  3.0

     negative rho (up, down):  8.875E-04 0.000E+00

     total cpu time spent up to now is     2204.5 secs

     total energy              =    -259.42673254 Ry
     estimated scf accuracy    <       0.00000037 Ry

     iteration #  6     ecut=    60.00 Ry     beta= 0.70
     Davidson diagonalization with overlap
     ethr =  7.05E-10,  avg # of iterations =  3.0

     negative rho (up, down):  8.875E-04 0.000E+00

     total cpu time spent up to now is     2252.7 secs

     End of self-consistent calculation

          k = 0.0000 0.0000 0.0000 (423701 PWs)   bands (ev):

   -27.0378 -24.1226 -20.4658 -19.4895 -18.5046 -16.7508 -16.3918 -15.9563
   -15.0567 -13.9338 -12.6656 -12.2999 -11.9503 -11.7972 -11.1782 -11.0977
   -10.8756 -10.3100  -9.9048  -9.5180  -8.9932  -7.8003  -6.9593  -4.5067
    -4.4490  -4.4051  -1.6170  -1.4206  -0.8604  -0.5838  -0.2327

     the Fermi energy is    -3.0541 ev

!    total energy              =    -259.42673265 Ry
     total all-electron energy =     -1612.277450 Ry
     estimated scf accuracy    <       0.00000005 Ry
     smearing contrib. (-TS)   =       0.00000000 Ry
     internal energy E=F+TS    =    -259.42673265 Ry

     The total energy is F=E-TS. E is the sum of the following terms:
     one-electron contribution =    -803.26957006 Ry
     hartree contribution      =     407.55475822 Ry
     xc contribution           =     -57.81982129 Ry
     ewald contribution        =     292.48773797 Ry
     one-center paw contrib.   =     -98.37983750 Ry

     convergence has been achieved in   6 iterations

     negative rho (up, down):  8.875E-04 0.000E+00

     Forces acting on atoms (cartesian axes, Ry/au):

     atom    1 type  1   force =     0.00532086   -0.00764374   -0.00545253
     atom    2 type  1   force =    -0.01018521   -0.00206823   -0.00894943
     atom    3 type  2   force =     0.00374091    0.00821392   -0.00057107
     atom    4 type  2   force =     0.00635209    0.00978376    0.00770319
     atom    5 type  2   force =    -0.01304647    0.00198427   -0.00242074
     atom    6 type  2   force =     0.01228416   -0.00581064    0.00297337
     atom    7 type  2   force =     0.00326285   -0.00033107   -0.00716863
[...]
C             7.4046247659        9.3856987652       10.6388121948
C            12.9668824357        9.0122229423       10.0848873472
H             7.7194851083       10.5445987097        8.8103434997
H             8.1502598371        8.8219871861        8.6844927820
H            10.3920754606        7.9420311493        9.5337713868
H             9.5053685538       12.1506881589        9.9695664850
H            12.2256722594       11.7631595299       10.4056794149
H             7.8303537866        8.4960030097       11.1203111171
H             6.3527240807        9.1764921561       10.4042679730
H             7.4371533404       10.2302662848       11.3406911189
H            12.7805155890        7.9441244670        9.9214692249
H            13.6848108702        9.3870033002        9.3452796166
H            13.3662747012        9.1631930570       11.0946277859
Cl           10.0643602408        6.1196661362        9.8283130669



     Writing config-only to output data dir ./plusCL3.save/
     NEW-OLD atomic charge density approx. for the potential

     negative rho (up, down):  8.919E-04 0.000E+00

     total cpu time spent up to now is    10541.2 secs

     Self-consistent Calculation

     iteration #  1     ecut=    60.00 Ry     beta= 0.70
     Davidson diagonalization with overlap
     ethr =  1.00E-06,  avg # of iterations =  2.0

     Threshold (ethr) on eigenvalues was too large:
     Diagonalizing with lowered threshold

     Davidson diagonalization with overlap
     ethr =  9.15E-09,  avg # of iterations =  4.0

     negative rho (up, down):  8.919E-04 0.000E+00

     total cpu time spent up to now is    10583.6 secs

     total energy              =    -259.42916166 Ry
     estimated scf accuracy    <       0.00000650 Ry

     iteration #  2     ecut=    60.00 Ry     beta= 0.70
     Davidson diagonalization with overlap
     ethr =  1.25E-08,  avg # of iterations =  2.0

     negative rho (up, down):  8.918E-04 0.000E+00

     total cpu time spent up to now is    10609.4 secs

     total energy              =    -259.42916253 Ry
     estimated scf accuracy    <       0.00000100 Ry

     iteration #  3     ecut=    60.00 Ry     beta= 0.70
     Davidson diagonalization with overlap
     ethr =  1.92E-09,  avg # of iterations =  2.0

     negative rho (up, down):  8.918E-04 0.000E+00

     total cpu time spent up to now is    10635.2 secs

     total energy              =    -259.42916274 Ry
     estimated scf accuracy    <       0.00000021 Ry

     iteration #  4     ecut=    60.00 Ry     beta= 0.70
     Davidson diagonalization with overlap
     ethr =  4.02E-10,  avg # of iterations =  2.0

     negative rho (up, down):  8.918E-04 0.000E+00

     total cpu time spent up to now is    10661.0 secs

     total energy              =    -259.42916278 Ry
     estimated scf accuracy    <       0.00000010 Ry

     iteration #  5     ecut=    60.00 Ry     beta= 0.70
     Davidson diagonalization with overlap
     ethr =  1.90E-10,  avg # of iterations =  2.0

     negative rho (up, down):  8.918E-04 0.000E+00

     total cpu time spent up to now is    10686.2 secs

     End of self-consistent calculation

          k = 0.0000 0.0000 0.0000 (423701 PWs)   bands (ev):

   -27.1785 -24.2384 -20.5554 -19.5467 -18.5693 -16.8204 -16.2964 -16.0130
   -15.1882 -14.0319 -12.7514 -12.3839 -12.0528 -11.8209 -11.2442 -11.1066
   -10.9669 -10.3382  -9.9656  -9.5289  -8.9794  -7.8859  -7.0033  -4.4598
    -4.3773  -4.3361  -1.6535  -1.4462  -0.8715  -0.5797  -0.2546

     the Fermi energy is    -2.9699 ev

!    total energy              =    -259.42916280 Ry
     total all-electron energy =     -1612.279880 Ry
     estimated scf accuracy    <          2.2E-09 Ry
     smearing contrib. (-TS)   =       0.00000000 Ry
     internal energy E=F+TS    =    -259.42916280 Ry

     The total energy is F=E-TS. E is the sum of the following terms:
     one-electron contribution =    -804.29654662 Ry
     hartree contribution      =     408.00880302 Ry
     xc contribution           =     -57.86861659 Ry
     ewald contribution        =     293.10739223 Ry
     one-center paw contrib.   =     -98.38019483 Ry

     convergence has been achieved in   5 iterations

     negative rho (up, down):  8.918E-04 0.000E+00

     Forces acting on atoms (cartesian axes, Ry/au):

     atom    1 type  1   force =     0.00000378   -0.00031052   -0.00011378
     atom    2 type  1   force =    -0.00027017   -0.00034167   -0.00012351
     atom    3 type  2   force =    -0.00009869    0.00043766   -0.00016228
     atom    4 type  2   force =    -0.00010198    0.00013972   -0.00061356
     atom    5 type  2   force =     0.00005810   -0.00025338   -0.00002085
     atom    6 type  2   force =    -0.00002555   -0.00018828   -0.00016172
     atom    7 type  2   force =     0.00009777   -0.00017611    0.00006810
     atom    8 type  2   force =     0.00009907   -0.00006673    0.00014857
     atom    9 type  3   force =    -0.00013734    0.00052569    0.00010950
     atom   10 type  3   force =    -0.00027004   -0.00010097    0.00018835
     atom   11 type  3   force =     0.00007513    0.00003480   -0.00018982
     atom   12 type  3   force =     0.00017991    0.00044550    0.00001044
     atom   13 type  3   force =    -0.00021722    0.00011396    0.00021833
     atom   14 type  3   force =     0.00023155   -0.00036145    0.00019564
     atom   15 type  3   force =    -0.00003261   -0.00013188    0.00000979
     atom   16 type  3   force =     0.00007040    0.00001598   -0.00023087
     atom   17 type  3   force =     0.00038514    0.00012788    0.00059672
     atom   18 type  3   force =    -0.00018036   -0.00018477   -0.00038948
     atom   19 type  3   force =     0.00000912    0.00003271    0.00033251
     atom   20 type  4   force =     0.00012401    0.00024185    0.00012791
     The non-local contrib.  to forces
     atom    1 type  1   force =     0.21056032    0.02272314    0.08551626
     atom    2 type  1   force =    -0.13629722    0.06179791   -0.02500038
     atom    3 type  2   force =     0.41916002    0.14381156    0.11510427
     atom    4 type  2   force =     0.08230991    0.73995467    0.16353135
     atom    5 type  2   force =    -0.16482232   -0.29414143   -0.09008025
     atom    6 type  2   force =     0.09959768   -0.33577399   -0.04980040
     atom    7 type  2   force =     0.02671488    0.07252972   -0.10648295
     atom    8 type  2   force =    -0.36818206    0.28118800   -0.03413193
     atom    9 type  3   force =     0.03172471   -0.05775923    0.03823106
     atom   10 type  3   force =     0.00156863    0.06270263    0.04706851
     atom   11 type  3   force =     0.00828161    0.06111215    0.00426546
     atom   12 type  3   force =     0.04395004   -0.06732410   -0.00354388
     atom   13 type  3   force =    -0.05734707   -0.05289086   -0.01952054
     atom   14 type  3   force =    -0.02884851    0.06216350   -0.03330040
     atom   15 type  3   force =     0.07129862    0.01488392    0.01465035
     atom   16 type  3   force =    -0.00143604   -0.05578172   -0.04820007
     atom   17 type  3   force =     0.01259269    0.07722539    0.01119809
     atom   18 type  3   force =    -0.05078286   -0.02472553    0.05138362
     atom   19 type  3   force =    -0.02866579   -0.00898921   -0.07046792
     atom   20 type  4   force =     0.01070072    0.06244108   -0.00768541
     The ionic contribution  to forces
     atom    1 type  1   force =    -5.07507090    1.85090156   -2.74882197
     atom    2 type  1   force =     7.71290943   -0.59582159    0.64973259
     atom    3 type  2   force =    -6.91490650    0.02421100   -4.16103329
     atom    4 type  2   force =     0.22114758   -7.80756854   -2.75281457
     atom    5 type  2   force =    -2.21599765   10.57236890    0.83663946
     atom    6 type  2   force =     5.72193888    9.09700802    2.35844015
     atom    7 type  2   force =    -6.26752786   -0.92972027    4.06629594
     atom    8 type  2   force =     8.48494928   -3.03794331    0.82088355
     atom    9 type  3   force =    -2.19674489    2.26607752   -2.07338429
     atom   10 type  3   force =    -1.24883254   -2.22999961   -2.53427426
     atom   11 type  3   force =    -0.04818043   -2.43669510   -0.61326468
     atom   12 type  3   force =    -1.54369992    3.53082927    0.19394776
     atom   13 type  3   force =     2.47269856    2.81755634    0.89187747
     atom   14 type  3   force =    -0.29730673   -2.33531064    1.98482305
     atom   15 type  3   force =    -3.37798772   -0.59962969   -0.07643856
     atom   16 type  3   force =    -1.11759792    1.94013009    2.43406294
     atom   17 type  3   force =     1.11304189   -3.06215697   -0.27672587
     atom   18 type  3   force =     2.97912284    0.54219098   -1.83536468
     atom   19 type  3   force =     2.20208663   -0.03951700    2.75153042
     atom   20 type  4   force =    -0.60404202   -9.56691097    0.08388884
     The local contribution  to forces
     atom    1 type  1   force =     4.86494310   -1.87296972    2.66394643
     atom    2 type  1   force =    -7.57594011    0.53432075   -0.62477451
     atom    3 type  2   force =     6.50348099   -0.16499308    4.04907451
     atom    4 type  2   force =    -0.30267965    7.07552154    2.59011646
     atom    5 type  2   force =     2.37538906  -10.28106768   -0.74814089
     atom    6 type  2   force =    -5.81678729   -8.76555800   -2.30876829
     atom    7 type  2   force =     6.24170956    0.85844131   -3.96200448
     atom    8 type  2   force =    -8.12379735    2.76202269   -0.78731371
     atom    9 type  3   force =     2.16488915   -2.20779310    2.03526561
     atom   10 type  3   force =     1.24699991    2.16719480    2.48739756
     atom   11 type  3   force =     0.03997655    2.37561650    0.60881118
     atom   12 type  3   force =     1.49993669   -3.46306688   -0.19039118
     atom   13 type  3   force =    -2.41556545   -2.76454950   -0.87213444
     atom   14 type  3   force =     0.32639202    2.27278425   -1.95132369
     atom   15 type  3   force =     3.30666042    0.58461106    0.06180170
     atom   16 type  3   force =     1.11911068   -1.88433341   -2.38608931
     atom   17 type  3   force =    -1.12524459    2.98505820    0.26612944
     atom   18 type  3   force =    -2.92851486   -0.51765431    1.78359558
     atom   19 type  3   force =    -2.17340635    0.04853528   -2.68072746
     atom   20 type  4   force =     0.59365532    9.50580412   -0.07618501
     The core correction contribution to forces
     atom    1 type  1   force =    -0.00042506   -0.00094401   -0.00076558
     atom    2 type  1   force =    -0.00094835   -0.00065493   -0.00008814
     atom    3 type  2   force =    -0.00781391   -0.00259213   -0.00330656
     atom    4 type  2   force =    -0.00090410   -0.00776968   -0.00145603
     atom    5 type  2   force =     0.00547630    0.00258991    0.00155629
     atom    6 type  2   force =    -0.00480681    0.00416021   -0.00003213
     atom    7 type  2   force =    -0.00078302   -0.00143377    0.00226562
     atom    8 type  2   force =     0.00714504   -0.00535348    0.00072084
     atom    9 type  3   force =     0.00000000    0.00000000    0.00000000
     atom   10 type  3   force =     0.00000000    0.00000000    0.00000000
     atom   11 type  3   force =     0.00000000    0.00000000    0.00000000
     atom   12 type  3   force =     0.00000000    0.00000000    0.00000000
     atom   13 type  3   force =     0.00000000    0.00000000    0.00000000
     atom   14 type  3   force =     0.00000000    0.00000000    0.00000000
     atom   15 type  3   force =     0.00000000    0.00000000    0.00000000
     atom   16 type  3   force =     0.00000000    0.00000000    0.00000000
     atom   17 type  3   force =     0.00000000    0.00000000    0.00000000
     atom   18 type  3   force =     0.00000000    0.00000000    0.00000000
     atom   19 type  3   force =     0.00000000    0.00000000    0.00000000
     atom   20 type  4   force =    -0.00019060   -0.00109925    0.00011213
     The Hubbard contrib.    to forces
     atom    1 type  1   force =     0.00000000    0.00000000    0.00000000
     atom    2 type  1   force =     0.00000000    0.00000000    0.00000000
     atom    3 type  2   force =     0.00000000    0.00000000    0.00000000
     atom    4 type  2   force =     0.00000000    0.00000000    0.00000000
     atom    5 type  2   force =     0.00000000    0.00000000    0.00000000
     atom    6 type  2   force =     0.00000000    0.00000000    0.00000000
     atom    7 type  2   force =     0.00000000    0.00000000    0.00000000
     atom    8 type  2   force =     0.00000000    0.00000000    0.00000000
     atom    9 type  3   force =     0.00000000    0.00000000    0.00000000
     atom   10 type  3   force =     0.00000000    0.00000000    0.00000000
     atom   11 type  3   force =     0.00000000    0.00000000    0.00000000
     atom   12 type  3   force =     0.00000000    0.00000000    0.00000000
     atom   13 type  3   force =     0.00000000    0.00000000    0.00000000
     atom   14 type  3   force =     0.00000000    0.00000000    0.00000000
     atom   15 type  3   force =     0.00000000    0.00000000    0.00000000
     atom   16 type  3   force =     0.00000000    0.00000000    0.00000000
     atom   17 type  3   force =     0.00000000    0.00000000    0.00000000
     atom   18 type  3   force =     0.00000000    0.00000000    0.00000000
     atom   19 type  3   force =     0.00000000    0.00000000    0.00000000
     atom   20 type  4   force =     0.00000000    0.00000000    0.00000000
     The SCF correction term to forces
     atom    1 type  1   force =     0.00000067   -0.00002308    0.00001461
     atom    2 type  1   force =     0.00001045    0.00001461    0.00001046
     atom    3 type  2   force =    -0.00001493   -0.00000128    0.00000233
     atom    4 type  2   force =     0.00002864    0.00000015    0.00001275
     atom    5 type  2   force =     0.00001707   -0.00000468    0.00000807
     atom    6 type  2   force =     0.00003636   -0.00002611    0.00000248
     atom    7 type  2   force =    -0.00001143    0.00000530   -0.00000251
     atom    8 type  2   force =    -0.00001147    0.00001777   -0.00000664
     atom    9 type  3   force =    -0.00000194   -0.00000108    0.00000065
     atom   10 type  3   force =    -0.00000168   -0.00000039    0.00000007
     atom   11 type  3   force =     0.00000176   -0.00000034    0.00000175
     atom   12 type  3   force =    -0.00000254    0.00000562    0.00000128
     atom   13 type  3   force =     0.00000111   -0.00000361   -0.00000063
     atom   14 type  3   force =    -0.00000087   -0.00000014    0.00000021
     atom   15 type  3   force =     0.00000044    0.00000123   -0.00000017
     atom   16 type  3   force =    -0.00000195   -0.00000057   -0.00000090
     atom   17 type  3   force =    -0.00000050   -0.00000032   -0.00000141
     atom   18 type  3   force =    -0.00000112    0.00000249   -0.00000047
     atom   19 type  3   force =    -0.00000100    0.00000206    0.00000101
     atom   20 type  4   force =     0.00000495    0.00000528    0.00000090

     Total force =     0.001791     Total SCF correction =     0.000075


     Computing stress (Cartesian axis) and pressure


     negative rho (up, down):  8.918E-04 0.000E+00
          total   stress  (Ry/bohr**3)                   (kbar)     P=       -0.03
  -0.00000016  -0.00000004   0.00000004           -0.02       -0.01        0.01
  -0.00000004  -0.00000027  -0.00000004           -0.01       -0.04       -0.01
   0.00000004  -0.00000004  -0.00000014            0.01       -0.01       -0.02

     Energy error            =      6.5E-06 Ry
     Gradient error          =      6.1E-04 Ry/Bohr

     bfgs converged in  25 scf cycles and  24 bfgs steps
     (criteria: energy <  1.0E-04 Ry, force <  1.0E-03 Ry/Bohr)

     End of BFGS Geometry Optimization

     Final energy             =    -259.4291627969 Ry

     File ./plusCL3.bfgs deleted, as requested
Begin final coordinates

ATOMIC_POSITIONS (angstrom)
N             9.5740604997       10.0155581400        9.5961404135
N            11.6895816407        9.7103106151        9.9473183604
C             8.1571013597        9.6942101910        9.3498533317
C            10.5460102084        9.0852993301        9.6120760738
C            10.1079475194       11.2521358096        9.9258151146
C            11.4435627423       11.0617510616       10.1431336921
C             7.4046247659        9.3856987652       10.6388121948
C            12.9668824357        9.0122229423       10.0848873472
H             7.7194851083       10.5445987097        8.8103434997
H             8.1502598371        8.8219871861        8.6844927820
H            10.3920754606        7.9420311493        9.5337713868
H             9.5053685538       12.1506881589        9.9695664850
H            12.2256722594       11.7631595299       10.4056794149
H             7.8303537866        8.4960030097       11.1203111171
H             6.3527240807        9.1764921561       10.4042679730
H             7.4371533404       10.2302662848       11.3406911189
H            12.7805155890        7.9441244670        9.9214692249
H            13.6848108702        9.3870033002        9.3452796166
H            13.3662747012        9.1631930570       11.0946277859
Cl           10.0643602408        6.1196661362        9.8283130669
End final coordinates



     Writing all to output data dir ./plusCL3.save/

     init_run     :     46.77s CPU     48.67s WALL (       1 calls)
     electrons    :   6776.69s CPU   7231.89s WALL (      25 calls)
     update_pot   :    210.44s CPU    213.72s WALL (      24 calls)
     forces       :    631.62s CPU    664.57s WALL (      25 calls)
     stress       :   2149.41s CPU   2236.62s WALL (      25 calls)

     Called by init_run:
     wfcinit      :      3.17s CPU      3.27s WALL (       1 calls)
     potinit      :      5.59s CPU      5.92s WALL (       1 calls)
     hinit0       :      3.69s CPU      3.81s WALL (       1 calls)

     Called by electrons:
     c_bands      :    934.21s CPU    944.50s WALL (     163 calls)
     sum_band     :   3358.87s CPU   3590.65s WALL (     163 calls)
     v_of_rho     :    541.81s CPU    560.34s WALL (     171 calls)
     newd         :   2138.02s CPU   2309.08s WALL (     171 calls)
     PAW_pot      :     44.70s CPU     45.53s WALL (     195 calls)
     mix_rho      :     86.60s CPU     87.33s WALL (     163 calls)

     Called by c_bands:
     init_us_2    :     11.04s CPU     11.19s WALL (     351 calls)
     init_us_2:cp :     11.03s CPU     11.19s WALL (     351 calls)
     cegterg      :    914.92s CPU    924.96s WALL (     163 calls)

     Called by *egterg:
     cdiaghg      :      0.93s CPU      0.97s WALL (     588 calls)
     h_psi        :    797.17s CPU    806.03s WALL (     630 calls)
     s_psi        :     24.70s CPU     24.86s WALL (     630 calls)
     g_psi        :      3.37s CPU      3.41s WALL (     466 calls)

     Called by h_psi:
     h_psi:calbec :     21.53s CPU     21.70s WALL (     630 calls)
     vloc_psi     :    744.83s CPU    753.30s WALL (     630 calls)
     add_vuspsi   :     24.62s CPU     24.78s WALL (     630 calls)

     General routines
     calbec       :     33.83s CPU     34.12s WALL (     942 calls)
     fft          :    628.26s CPU    638.53s WALL (    2839 calls)
     ffts         :     17.32s CPU     17.51s WALL (     334 calls)
     fftw         :    525.69s CPU    532.39s WALL (   33115 calls)
     interpolate  :     48.85s CPU     49.30s WALL (     171 calls)

     Parallel routines

     PWSCF        :      2h49m CPU      2h59m WALL


   This run was terminated on:  13:58: 0  18Jun2025            

=------------------------------------------------------------------------------=
   JOB DONE.
=------------------------------------------------------------------------------=
