
     Program PWSCF v.7.2 starts on 18Jun2025 at 10:58:38 

     This program is part of the open-source Quantum ESPRESSO suite
     for quantum simulation of materials; please cite
         "P. Giannozzi et al., J. Phys.:Condens. Matter 21 395502 (2009);
         "P. Giannozzi et al., J. Phys.:Condens. Matter 29 465901 (2017);
         "P. Giannozzi et al., J. Chem. Phys. 152 154105 (2020);
          URL http://www.quantum-espresso.org", 
     in publications or presentations arising from this work. More details at
     http://www.quantum-espresso.org/quote

     Parallel version (MPI), running on    20 processors

     MPI processes distributed on     1 nodes
     234426 MiB available memory on the printing compute node when the environment starts

     Reading input from pw0.in
Warning: card &CELL ignored
Warning: card / ignored
Warning: card &FCP ignored
Warning: card / ignored
Warning: card &RISM ignored
Warning: card / ignored

     Current dimensions of program PWSCF are:
     Max number of different atomic species (ntypx) = 10
     Max number of k-points (npk) =  40000
     Max angular momentum in pseudopotentials (lmaxx) =  4
     file N.pbe-n-kjpaw_psl.1.0.0.UPF: wavefunction(s)  2S renormalized
     file C.pbe-n-kjpaw_psl.1.0.0.UPF: wavefunction(s)  2S 2P renormalized
     file H.pbe-kjpaw_psl.1.0.0.UPF: wavefunction(s)  1S renormalized
     file Cl.pbe-n-kjpaw_psl.1.0.0.UPF: wavefunction(s)  3S 3P renormalized

     R & G space division:  proc/nbgrp/npool/nimage =      20
     Subspace diagonalization in iterative solution of the eigenvalue problem:
     a serial algorithm will be used


     Parallelization info
     --------------------
     sticks:   dense  smooth     PW     G-vecs:    dense   smooth      PW
     Min        3411    1364    340               669939   169462   21182
     Max        3413    1365    341               669940   169465   21187
     Sum       68237   27281   6817             13398795  3389267  423701

     Using Slab Decomposition



     bravais-lattice index     =            0
     lattice parameter (alat)  =      37.7945  a.u.
     unit-cell volume          =   53986.6760 (a.u.)^3
     number of atoms/cell      =           20
     number of atomic types    =            4
     number of electrons       =        52.00
     number of Kohn-Sham states=           31
     kinetic-energy cutoff     =      60.0000  Ry
     charge density cutoff     =     600.0000  Ry
     scf convergence threshold =      1.0E-06
     mixing beta               =       0.7000
     number of iterations used =            8  plain     mixing
     energy convergence thresh.=      1.0E-04
     force convergence thresh. =      1.0E-03
     Exchange-correlation= SLA  PW   PBX  PBC
                           (   1   4   3   4   0   0   0)
     nstep                     =           50


     celldm(1)=  37.794522  celldm(2)=   0.000000  celldm(3)=   0.000000
     celldm(4)=   0.000000  celldm(5)=   0.000000  celldm(6)=   0.000000

     crystal axes: (cart. coord. in units of alat)
               a(1) = (   1.000000   0.000000   0.000000 )  
               a(2) = (   0.000000   1.000000   0.000000 )  
               a(3) = (   0.000000   0.000000   1.000000 )  

     reciprocal axes: (cart. coord. in units 2 pi/alat)
               b(1) = (  1.000000  0.000000  0.000000 )  
               b(2) = (  0.000000  1.000000  0.000000 )  
               b(3) = (  0.000000  0.000000  1.000000 )  


     PseudoPot. # 1 for N  read from file:
     /home/ebarquero/practicas/pseudo/N.pbe-n-kjpaw_psl.1.0.0.UPF
     MD5 check sum: 14c48229446f9f2d411169a3abcbc3fa
     Pseudo is Projector augmented-wave + core cor, Zval =  5.0
     Generated using &quot;atomic&quot; code by A. Dal Corso  v.6.3
     Shape of augmentation charge: PSQ
     Using radial grid of 1085 points,  4 beta functions with: 
                l(1) =   0
                l(2) =   0
                l(3) =   1
                l(4) =   1
     Q(r) pseudized with 0 coefficients 


     PseudoPot. # 2 for C  read from file:
     /home/ebarquero/practicas/pseudo/C.pbe-n-kjpaw_psl.1.0.0.UPF
     MD5 check sum: 5f16ad9a65e90284d1d834d4ab3b0f7d
     Pseudo is Projector augmented-wave + core cor, Zval =  4.0
     Generated using &quot;atomic&quot; code by A. Dal Corso  v.6.3
     Shape of augmentation charge: PSQ
     Using radial grid of 1073 points,  4 beta functions with: 
                l(1) =   0
                l(2) =   0
                l(3) =   1
                l(4) =   1
     Q(r) pseudized with 0 coefficients 


     PseudoPot. # 3 for H  read from file:
     /home/ebarquero/practicas/pseudo/H.pbe-kjpaw_psl.1.0.0.UPF
     MD5 check sum: d81a744832360e4a8af0b0b5b123bc2a
     Pseudo is Projector augmented-wave, Zval =  1.0
     Generated using &quot;atomic&quot; code by A. Dal Corso  v.6.3MaX
     Shape of augmentation charge: PSQ
     Using radial grid of  929 points,  2 beta functions with: 
                l(1) =   0
                l(2) =   0
     Q(r) pseudized with 0 coefficients 


     PseudoPot. # 4 for Cl read from file:
     /home/ebarquero/practicas/pseudo/Cl.pbe-n-kjpaw_psl.1.0.0.UPF
     MD5 check sum: 530da96d25dcb7781b0586ca00827062
     Pseudo is Projector augmented-wave + core cor, Zval =  7.0
     Generated using &quot;atomic&quot; code by A. Dal Corso  v.6.3
     Shape of augmentation charge: PSQ
     Using radial grid of 1157 points,  6 beta functions with: 
                l(1) =   0
                l(2) =   0
                l(3) =   1
                l(4) =   1
                l(5) =   2
                l(6) =   2
     Q(r) pseudized with 0 coefficients 


     atomic species   valence    mass     pseudopotential
        N              5.00    14.00700     N ( 1.00)
        C              4.00    12.01100     C ( 1.00)
        H              1.00     1.00800     H ( 1.00)
        Cl             7.00    35.45000     Cl( 1.00)

     No symmetry found



   Cartesian axes

     site n.     atom                  positions (alat units)
         1           N   tau(   1) = (   0.4784350   0.4983700   0.4822825  )
         2           N   tau(   2) = (   0.5840800   0.4834250   0.4981975  )
         3           C   tau(   3) = (   0.4086850   0.4849100   0.4683775  )
         4           C   tau(   4) = (   0.5267500   0.4522000   0.4838175  )
         5           C   tau(   5) = (   0.5053200   0.5601200   0.4958775  )
         6           C   tau(   6) = (   0.5722200   0.5506600   0.5059525  )
         7           C   tau(   7) = (   0.3692350   0.4695750   0.5314475  )
         8           C   tau(   8) = (   0.6484800   0.4509850   0.5045475  )
         9           H   tau(   9) = (   0.3870500   0.5281950   0.4426725  )
        10           H   tau(  10) = (   0.4058600   0.4424850   0.4338175  )
        11           H   tau(  11) = (   0.5205200   0.3993350   0.4751075  )
        12           H   tau(  12) = (   0.4726500   0.6026750   0.4965575  )
        13           H   tau(  13) = (   0.6136500   0.5826400   0.5177475  )
        14           H   tau(  14) = (   0.3900550   0.4260000   0.5572075  )
        15           H   tau(  15) = (   0.3169150   0.4591950   0.5193225  )
        16           H   tau(  16) = (   0.3709150   0.5118400   0.5661825  )
        17           H   tau(  17) = (   0.6434600   0.3973250   0.4954175  )
        18           H   tau(  18) = (   0.6830850   0.4722900   0.4679675  )
        19           H   tau(  19) = (   0.6677300   0.4589100   0.5551025  )
        20           Cl  tau(  20) = (   0.5840800   0.0687350   0.4902400  )

     number of k points=     1  Methfessel-Paxton smearing, width (Ry)=  0.0200
                       cart. coord. in units 2pi/alat
        k(    1) = (   0.0000000   0.0000000   0.0000000), wk =   2.0000000

     Dense  grid: 13398795 G-vectors     FFT dimensions: ( 300, 300, 300)

     Smooth grid:  3389267 G-vectors     FFT dimensions: ( 192, 192, 192)

     Estimated max dynamical RAM per process >       2.64 GB

     Estimated total dynamical RAM >      52.81 GB

     Initial potential from superposition of free atoms

     starting charge      51.9996, renormalised to      52.0000

     negative rho (up, down):  4.763E-04 0.000E+00
     Starting wfcs are   47 randomized atomic wfcs
     Checking if some PAW data can be deallocated... 

     total cpu time spent up to now is       27.6 secs

     Self-consistent Calculation

     iteration #  1     ecut=    60.00 Ry     beta= 0.70
     Davidson diagonalization with overlap
     ethr =  1.00E-02,  avg # of iterations =  4.0

     negative rho (up, down):  6.824E-04 0.000E+00

     total cpu time spent up to now is       54.2 secs

     total energy              =    -258.83565138 Ry
     estimated scf accuracy    <       2.02049305 Ry

     iteration #  2     ecut=    60.00 Ry     beta= 0.70
     Davidson diagonalization with overlap
     ethr =  3.89E-03,  avg # of iterations =  3.0

     negative rho (up, down):  2.394E-03 0.000E+00

     total cpu time spent up to now is       80.4 secs

     total energy              =    -256.74370992 Ry
     estimated scf accuracy    <      10.82432631 Ry

     iteration #  3     ecut=    60.00 Ry     beta= 0.70
     Davidson diagonalization with overlap
     ethr =  3.89E-03,  avg # of iterations =  6.0

     negative rho (up, down):  8.076E-04 0.000E+00

     total cpu time spent up to now is      106.9 secs

     total energy              =    -259.42046200 Ry
     estimated scf accuracy    <       1.06332429 Ry

     iteration #  4     ecut=    60.00 Ry     beta= 0.70
     Davidson diagonalization with overlap
     ethr =  2.04E-03,  avg # of iterations =  2.0

     negative rho (up, down):  7.977E-04 0.000E+00

     total cpu time spent up to now is      132.3 secs

     total energy              =    -259.41866050 Ry
     estimated scf accuracy    <       0.39852646 Ry

     iteration #  5     ecut=    60.00 Ry     beta= 0.70
     Davidson diagonalization with overlap
     ethr =  7.66E-04,  avg # of iterations =  3.0

     negative rho (up, down):  8.508E-04 0.000E+00

     total cpu time spent up to now is      157.7 secs

     total energy              =    -259.38508476 Ry
     estimated scf accuracy    <       0.25934391 Ry

     iteration #  6     ecut=    60.00 Ry     beta= 0.70
     Davidson diagonalization with overlap
     ethr =  4.99E-04,  avg # of iterations =  5.0

     negative rho (up, down):  8.462E-04 0.000E+00

     total cpu time spent up to now is      183.3 secs

     total energy              =    -259.34630633 Ry
     estimated scf accuracy    <       0.18747123 Ry

     iteration #  7     ecut=    60.00 Ry     beta= 0.70
     Davidson diagonalization with overlap
     ethr =  3.61E-04,  avg # of iterations =  1.0

     negative rho (up, down):  8.598E-04 0.000E+00

     total cpu time spent up to now is      208.5 secs

     total energy              =    -259.28295865 Ry
     estimated scf accuracy    <       0.12514346 Ry

     iteration #  8     ecut=    60.00 Ry     beta= 0.70
     Davidson diagonalization with overlap
     ethr =  2.41E-04,  avg # of iterations = 10.0

     negative rho (up, down):  1.479E-03 0.000E+00

     total cpu time spent up to now is      235.4 secs

     total energy              =    -259.29887470 Ry
     estimated scf accuracy    <       1.87170730 Ry

     iteration #  9     ecut=    60.00 Ry     beta= 0.70
     Davidson diagonalization with overlap
     ethr =  2.41E-04,  avg # of iterations =  1.0

     negative rho (up, down):  1.407E-03 0.000E+00

     total cpu time spent up to now is      260.7 secs

     total energy              =    -259.35998549 Ry
     estimated scf accuracy    <       0.72164925 Ry

     iteration # 10     ecut=    60.00 Ry     beta= 0.70
     Davidson diagonalization with overlap
     ethr =  2.41E-04,  avg # of iterations =  2.0

     negative rho (up, down):  2.120E-03 0.000E+00

     total cpu time spent up to now is      286.0 secs

     total energy              =    -258.97015607 Ry
     estimated scf accuracy    <       5.33494562 Ry

     iteration # 11     ecut=    60.00 Ry     beta= 0.70
     Davidson diagonalization with overlap
     ethr =  2.41E-04,  avg # of iterations =  2.0

     negative rho (up, down):  8.527E-04 0.000E+00

     total cpu time spent up to now is      311.5 secs

     total energy              =    -259.31760808 Ry
     estimated scf accuracy    <       0.07777474 Ry

     iteration # 12     ecut=    60.00 Ry     beta= 0.70
     Davidson diagonalization with overlap
     ethr =  1.50E-04,  avg # of iterations =  1.0

     negative rho (up, down):  7.600E-04 0.000E+00

     total cpu time spent up to now is      336.7 secs

     total energy              =    -259.31010144 Ry
     estimated scf accuracy    <       0.07881685 Ry

     iteration # 13     ecut=    60.00 Ry     beta= 0.70
     Davidson diagonalization with overlap
     ethr =  1.50E-04,  avg # of iterations =  1.0

     negative rho (up, down):  7.861E-04 0.000E+00

     total cpu time spent up to now is      362.0 secs

     total energy              =    -259.30984741 Ry
     estimated scf accuracy    <       0.08635088 Ry

     iteration # 14     ecut=    60.00 Ry     beta= 0.70
     Davidson diagonalization with overlap
     ethr =  1.50E-04,  avg # of iterations =  1.0

     negative rho (up, down):  8.077E-04 0.000E+00

     total cpu time spent up to now is      387.2 secs

     total energy              =    -259.30526729 Ry
     estimated scf accuracy    <       0.08582585 Ry

     iteration # 15     ecut=    60.00 Ry     beta= 0.70
     Davidson diagonalization with overlap
     ethr =  1.50E-04,  avg # of iterations =  1.0

     negative rho (up, down):  8.132E-04 0.000E+00

     total cpu time spent up to now is      412.5 secs

     WARNING: integrated charge=    52.00066093, expected=    52.00000000

     total energy              =    -259.30544873 Ry
     estimated scf accuracy    <       0.08207977 Ry

     iteration # 16     ecut=    60.00 Ry     beta= 0.70
     Davidson diagonalization with overlap
     ethr =  1.50E-04,  avg # of iterations =  1.0
     Minimization algorithm failed to find Fermi energy: reverting to bisection
     Possible cause: smearing is larger than the electronic band-gap.

     negative rho (up, down):  8.076E-04 0.000E+00

     total cpu time spent up to now is      437.7 secs

     WARNING: integrated charge=    52.00027141, expected=    52.00000000

     total energy              =    -259.30210493 Ry
     estimated scf accuracy    <       0.06437697 Ry

     iteration # 17     ecut=    60.00 Ry     beta= 0.70
     Davidson diagonalization with overlap
     ethr =  1.24E-04,  avg # of iterations =  1.0
     Minimization algorithm failed to find Fermi energy: reverting to bisection
     Possible cause: smearing is larger than the electronic band-gap.

     negative rho (up, down):  8.017E-04 0.000E+00

     total cpu time spent up to now is      462.9 secs

     WARNING: integrated charge=    51.99957587, expected=    52.00000000

     total energy              =    -259.30286090 Ry
     estimated scf accuracy    <       0.06341912 Ry

     iteration # 18     ecut=    60.00 Ry     beta= 0.70
     Davidson diagonalization with overlap
     ethr =  1.22E-04,  avg # of iterations =  1.0
     Minimization algorithm failed to find Fermi energy: reverting to bisection
     Possible cause: smearing is larger than the electronic band-gap.

     negative rho (up, down):  7.965E-04 0.000E+00

     total cpu time spent up to now is      488.2 secs

     WARNING: integrated charge=    51.99814006, expected=    52.00000000

     total energy              =    -259.29948997 Ry
     estimated scf accuracy    <       0.06212249 Ry

     iteration # 19     ecut=    60.00 Ry     beta= 0.70
     Davidson diagonalization with overlap
     ethr =  1.19E-04,  avg # of iterations =  1.0
     Minimization algorithm failed to find Fermi energy: reverting to bisection
     Possible cause: smearing is larger than the electronic band-gap.

     negative rho (up, down):  8.369E-04 0.000E+00

     total cpu time spent up to now is      513.8 secs

     WARNING: integrated charge=    51.98792570, expected=    52.00000000

     total energy              =    -259.25674125 Ry
     estimated scf accuracy    <       0.07465292 Ry

     iteration # 20     ecut=    60.00 Ry     beta= 0.70
     Davidson diagonalization with overlap
     ethr =  1.19E-04,  avg # of iterations =  2.0

     negative rho (up, down):  2.311E-03 0.000E+00

     total cpu time spent up to now is      539.5 secs

     WARNING: integrated charge=    51.99139709, expected=    52.00000000

     total energy              =    -259.06934031 Ry
     estimated scf accuracy    <       8.88766199 Ry

     iteration # 21     ecut=    60.00 Ry     beta= 0.70
     Davidson diagonalization with overlap
     ethr =  1.19E-04,  avg # of iterations =  2.0

     negative rho (up, down):  9.364E-04 0.000E+00

     total cpu time spent up to now is      565.2 secs

     WARNING: integrated charge=    51.99387121, expected=    52.00000000

     total energy              =    -259.29860620 Ry
     estimated scf accuracy    <       0.05362599 Ry

     iteration # 22     ecut=    60.00 Ry     beta= 0.70
     Davidson diagonalization with overlap
     ethr =  1.03E-04,  avg # of iterations =  1.0

     negative rho (up, down):  8.120E-04 0.000E+00

     total cpu time spent up to now is      590.6 secs

     WARNING: integrated charge=    51.99122529, expected=    52.00000000

     total energy              =    -259.30150323 Ry
     estimated scf accuracy    <       0.07346982 Ry

     iteration # 23     ecut=    60.00 Ry     beta= 0.70
     Davidson diagonalization with overlap
     ethr =  1.03E-04,  avg # of iterations =  1.0
     Minimization algorithm failed to find Fermi energy: reverting to bisection
     Possible cause: smearing is larger than the electronic band-gap.

     negative rho (up, down):  8.358E-04 0.000E+00

     total cpu time spent up to now is      615.9 secs

     WARNING: integrated charge=    51.99186314, expected=    52.00000000

     total energy              =    -259.30073331 Ry
     estimated scf accuracy    <       0.06537681 Ry

     iteration # 24     ecut=    60.00 Ry     beta= 0.70
     Davidson diagonalization with overlap
     ethr =  1.03E-04,  avg # of iterations =  1.0
     Minimization algorithm failed to find Fermi energy: reverting to bisection
     Possible cause: smearing is larger than the electronic band-gap.

     negative rho (up, down):  8.581E-04 0.000E+00

     total cpu time spent up to now is      641.4 secs

     WARNING: integrated charge=    51.99750350, expected=    52.00000000

     total energy              =    -259.30292098 Ry
     estimated scf accuracy    <       0.06914570 Ry

     iteration # 25     ecut=    60.00 Ry     beta= 0.70
     Davidson diagonalization with overlap
     ethr =  1.03E-04,  avg # of iterations =  1.0
     Minimization algorithm failed to find Fermi energy: reverting to bisection
     Possible cause: smearing is larger than the electronic band-gap.

     negative rho (up, down):  8.595E-04 0.000E+00

     total cpu time spent up to now is      666.8 secs

     WARNING: integrated charge=    51.99878757, expected=    52.00000000

     total energy              =    -259.30302158 Ry
     estimated scf accuracy    <       0.06304573 Ry

     iteration # 26     ecut=    60.00 Ry     beta= 0.70
     Davidson diagonalization with overlap
     ethr =  1.03E-04,  avg # of iterations =  1.0
     Minimization algorithm failed to find Fermi energy: reverting to bisection
     Possible cause: smearing is larger than the electronic band-gap.

     negative rho (up, down):  8.621E-04 0.000E+00

     total cpu time spent up to now is      692.2 secs

     WARNING: integrated charge=    51.99876852, expected=    52.00000000

     total energy              =    -259.30219006 Ry
     estimated scf accuracy    <       0.06304938 Ry

     iteration # 27     ecut=    60.00 Ry     beta= 0.70
     Davidson diagonalization with overlap
     ethr =  1.03E-04,  avg # of iterations =  1.0
     Minimization algorithm failed to find Fermi energy: reverting to bisection
     Possible cause: smearing is larger than the electronic band-gap.

     negative rho (up, down):  8.879E-04 0.000E+00

     total cpu time spent up to now is      717.6 secs

     WARNING: integrated charge=    52.00023771, expected=    52.00000000

     total energy              =    -259.29702322 Ry
     estimated scf accuracy    <       0.06486048 Ry

     iteration # 28     ecut=    60.00 Ry     beta= 0.70
     Davidson diagonalization with overlap
     ethr =  1.03E-04,  avg # of iterations =  1.0

     negative rho (up, down):  8.938E-04 0.000E+00

     total cpu time spent up to now is      743.0 secs

     WARNING: integrated charge=    52.00082809, expected=    52.00000000

     total energy              =    -259.28691384 Ry
     estimated scf accuracy    <       0.07139378 Ry

     iteration # 29     ecut=    60.00 Ry     beta= 0.70
     Davidson diagonalization with overlap
     ethr =  1.03E-04,  avg # of iterations =  1.0

     negative rho (up, down):  1.559E-03 0.000E+00

     total cpu time spent up to now is      768.3 secs

     WARNING: integrated charge=    52.00626163, expected=    52.00000000

     total energy              =    -259.18779350 Ry
     estimated scf accuracy    <       0.41411690 Ry

     iteration # 30     ecut=    60.00 Ry     beta= 0.70
     Davidson diagonalization with overlap
     ethr =  1.03E-04,  avg # of iterations =  3.0

     negative rho (up, down):  2.672E-03 0.000E+00

     total cpu time spent up to now is      794.2 secs

     WARNING: integrated charge=    52.00590879, expected=    52.00000000

     total energy              =    -259.36462301 Ry
     estimated scf accuracy    <       0.11801080 Ry

     iteration # 31     ecut=    60.00 Ry     beta= 0.70
     Davidson diagonalization with overlap
     ethr =  1.03E-04,  avg # of iterations =  1.0

     negative rho (up, down):  1.083E-03 0.000E+00

     total cpu time spent up to now is      819.6 secs

     WARNING: integrated charge=    52.00497560, expected=    52.00000000

     total energy              =    -259.32850683 Ry
     estimated scf accuracy    <       0.15039063 Ry

     iteration # 32     ecut=    60.00 Ry     beta= 0.70
     Davidson diagonalization with overlap
     ethr =  1.03E-04,  avg # of iterations =  1.0

     negative rho (up, down):  8.815E-04 0.000E+00

     total cpu time spent up to now is      845.0 secs

     WARNING: integrated charge=    52.00441651, expected=    52.00000000

     total energy              =    -259.31055575 Ry
     estimated scf accuracy    <       0.09766842 Ry

     iteration # 33     ecut=    60.00 Ry     beta= 0.70
     Davidson diagonalization with overlap
     ethr =  1.03E-04,  avg # of iterations =  1.0

     negative rho (up, down):  8.341E-04 0.000E+00

     total cpu time spent up to now is      870.4 secs

     WARNING: integrated charge=    52.00214937, expected=    52.00000000

     total energy              =    -259.28584642 Ry
     estimated scf accuracy    <       0.08321242 Ry

     iteration # 34     ecut=    60.00 Ry     beta= 0.70
     Davidson diagonalization with overlap
     ethr =  1.03E-04,  avg # of iterations =  2.0

     negative rho (up, down):  1.164E-03 0.000E+00

     total cpu time spent up to now is      895.9 secs

     WARNING: integrated charge=    52.00087557, expected=    52.00000000

     total energy              =    -259.34627740 Ry
     estimated scf accuracy    <       1.11739440 Ry

     iteration # 35     ecut=    60.00 Ry     beta= 0.70
     Davidson diagonalization with overlap
     ethr =  1.03E-04,  avg # of iterations =  1.0

     negative rho (up, down):  1.760E-03 0.000E+00

     total cpu time spent up to now is      921.4 secs

     WARNING: integrated charge=    51.99993026, expected=    52.00000000

     total energy              =    -259.28581323 Ry
     estimated scf accuracy    <       2.32216041 Ry

     iteration # 36     ecut=    60.00 Ry     beta= 0.70
     Davidson diagonalization with overlap
     ethr =  1.03E-04,  avg # of iterations =  1.0

     negative rho (up, down):  1.306E-03 0.000E+00

     total cpu time spent up to now is      946.9 secs

     WARNING: integrated charge=    52.00008393, expected=    52.00000000

     total energy              =    -259.31066607 Ry
     estimated scf accuracy    <       0.41556070 Ry

     iteration # 37     ecut=    60.00 Ry     beta= 0.70
     Davidson diagonalization with overlap
     ethr =  1.03E-04,  avg # of iterations =  1.0

     negative rho (up, down):  1.693E-03 0.000E+00

     total cpu time spent up to now is      972.3 secs

     WARNING: integrated charge=    52.00107724, expected=    52.00000000

     total energy              =    -259.33183690 Ry
     estimated scf accuracy    <       1.61868725 Ry

     iteration # 38     ecut=    60.00 Ry     beta= 0.70
     Davidson diagonalization with overlap
     ethr =  1.03E-04,  avg # of iterations =  1.0

     negative rho (up, down):  1.991E-03 0.000E+00

     total cpu time spent up to now is      997.7 secs

     WARNING: integrated charge=    52.00082822, expected=    52.00000000

     total energy              =    -259.37652293 Ry
     estimated scf accuracy    <       2.08493059 Ry

     iteration # 39     ecut=    60.00 Ry     beta= 0.70
     Davidson diagonalization with overlap
     ethr =  1.03E-04,  avg # of iterations =  1.0

     negative rho (up, down):  2.153E-03 0.000E+00

     total cpu time spent up to now is     1023.1 secs

     WARNING: integrated charge=    52.00070962, expected=    52.00000000

     total energy              =    -259.36366028 Ry
     estimated scf accuracy    <       3.25207003 Ry

     iteration # 40     ecut=    60.00 Ry     beta= 0.70
     Davidson diagonalization with overlap
     ethr =  1.03E-04,  avg # of iterations =  1.0

     negative rho (up, down):  2.093E-03 0.000E+00

     total cpu time spent up to now is     1048.4 secs

     WARNING: integrated charge=    52.00103899, expected=    52.00000000

     total energy              =    -259.23678378 Ry
     estimated scf accuracy    <       2.51092436 Ry

     iteration # 41     ecut=    60.00 Ry     beta= 0.70
     Davidson diagonalization with overlap
     ethr =  1.03E-04,  avg # of iterations =  2.0

     negative rho (up, down):  9.038E-04 0.000E+00

     total cpu time spent up to now is     1074.0 secs

     WARNING: integrated charge=    52.00013995, expected=    52.00000000

     total energy              =    -259.29673864 Ry
     estimated scf accuracy    <       0.03548247 Ry

     iteration # 42     ecut=    60.00 Ry     beta= 0.70
     Davidson diagonalization with overlap
     ethr =  6.82E-05,  avg # of iterations =  1.0

     negative rho (up, down):  7.805E-04 0.000E+00

     total cpu time spent up to now is     1099.3 secs

     WARNING: integrated charge=    52.00003121, expected=    52.00000000

     total energy              =    -259.29567493 Ry
     estimated scf accuracy    <       0.07815460 Ry

     iteration # 43     ecut=    60.00 Ry     beta= 0.70
     Davidson diagonalization with overlap
     ethr =  6.82E-05,  avg # of iterations =  1.0

     negative rho (up, down):  8.009E-04 0.000E+00

     total cpu time spent up to now is     1124.6 secs

     total energy              =    -259.29327008 Ry
     estimated scf accuracy    <       0.06902573 Ry

     iteration # 44     ecut=    60.00 Ry     beta= 0.70
     Davidson diagonalization with overlap
     ethr =  6.82E-05,  avg # of iterations =  1.0

     negative rho (up, down):  7.877E-04 0.000E+00

     total cpu time spent up to now is     1150.0 secs

     WARNING: integrated charge=    52.00003185, expected=    52.00000000

     total energy              =    -259.29277562 Ry
     estimated scf accuracy    <       0.02711035 Ry

     iteration # 45     ecut=    60.00 Ry     beta= 0.70
     Davidson diagonalization with overlap
     ethr =  5.21E-05,  avg # of iterations =  1.0

     negative rho (up, down):  7.748E-04 0.000E+00

     total cpu time spent up to now is     1175.4 secs

     WARNING: integrated charge=    52.00004037, expected=    52.00000000

     total energy              =    -259.29294146 Ry
     estimated scf accuracy    <       0.00511107 Ry

     iteration # 46     ecut=    60.00 Ry     beta= 0.70
     Davidson diagonalization with overlap
     ethr =  9.83E-06,  avg # of iterations =  1.0

     negative rho (up, down):  7.719E-04 0.000E+00

     total cpu time spent up to now is     1200.8 secs

     WARNING: integrated charge=    52.00002703, expected=    52.00000000

     total energy              =    -259.29290078 Ry
     estimated scf accuracy    <       0.00305584 Ry

     iteration # 47     ecut=    60.00 Ry     beta= 0.70
     Davidson diagonalization with overlap
     ethr =  5.88E-06,  avg # of iterations =  1.0

     negative rho (up, down):  7.709E-04 0.000E+00

     total cpu time spent up to now is     1226.2 secs

     WARNING: integrated charge=    52.00001959, expected=    52.00000000

     total energy              =    -259.29288781 Ry
     estimated scf accuracy    <       0.00143006 Ry

     iteration # 48     ecut=    60.00 Ry     beta= 0.70
     Davidson diagonalization with overlap
     ethr =  2.75E-06,  avg # of iterations =  1.0

     negative rho (up, down):  7.838E-04 0.000E+00

     total cpu time spent up to now is     1251.5 secs

     WARNING: integrated charge=    52.00007579, expected=    52.00000000

     total energy              =    -259.29303727 Ry
     estimated scf accuracy    <       0.00073996 Ry

     iteration # 49     ecut=    60.00 Ry     beta= 0.70
     Davidson diagonalization with overlap
     ethr =  1.42E-06,  avg # of iterations =  1.0

     negative rho (up, down):  7.604E-04 0.000E+00

     total cpu time spent up to now is     1276.9 secs

     WARNING: integrated charge=    51.99985430, expected=    52.00000000

     total energy              =    -259.29322496 Ry
     estimated scf accuracy    <       0.01355978 Ry

     iteration # 50     ecut=    60.00 Ry     beta= 0.70
     Davidson diagonalization with overlap
     ethr =  1.42E-06,  avg # of iterations =  2.0

     negative rho (up, down):  7.746E-04 0.000E+00

     total cpu time spent up to now is     1302.6 secs

     WARNING: integrated charge=    51.99995293, expected=    52.00000000

     total energy              =    -259.29312094 Ry
     estimated scf accuracy    <       0.01732515 Ry

     iteration # 51     ecut=    60.00 Ry     beta= 0.70
     Davidson diagonalization with overlap
     ethr =  1.42E-06,  avg # of iterations =  1.0

     negative rho (up, down):  7.790E-04 0.000E+00

     total cpu time spent up to now is     1327.9 secs

     WARNING: integrated charge=    52.00003673, expected=    52.00000000

     total energy              =    -259.29267808 Ry
     estimated scf accuracy    <       0.01235496 Ry

     iteration # 52     ecut=    60.00 Ry     beta= 0.70
     Davidson diagonalization with overlap
     ethr =  1.42E-06,  avg # of iterations =  1.0

     negative rho (up, down):  7.729E-04 0.000E+00

     total cpu time spent up to now is     1353.3 secs

     WARNING: integrated charge=    52.00002959, expected=    52.00000000

     total energy              =    -259.29280189 Ry
     estimated scf accuracy    <       0.00056366 Ry

     iteration # 53     ecut=    60.00 Ry     beta= 0.70
     Davidson diagonalization with overlap
     ethr =  1.08E-06,  avg # of iterations =  1.0

     negative rho (up, down):  7.725E-04 0.000E+00

     total cpu time spent up to now is     1378.7 secs

     WARNING: integrated charge=    52.00001051, expected=    52.00000000

     total energy              =    -259.29282127 Ry
     estimated scf accuracy    <       0.00086242 Ry

     iteration # 54     ecut=    60.00 Ry     beta= 0.70
     Davidson diagonalization with overlap
     ethr =  1.08E-06,  avg # of iterations =  1.0

     negative rho (up, down):  7.719E-04 0.000E+00

     total cpu time spent up to now is     1404.1 secs

     total energy              =    -259.29284145 Ry
     estimated scf accuracy    <       0.00000503 Ry

     iteration # 55     ecut=    60.00 Ry     beta= 0.70
     Davidson diagonalization with overlap
     ethr =  9.67E-09,  avg # of iterations =  5.0

     negative rho (up, down):  7.719E-04 0.000E+00

     total cpu time spent up to now is     1429.8 secs

     total energy              =    -259.29284149 Ry
     estimated scf accuracy    <       0.00000190 Ry

     iteration # 56     ecut=    60.00 Ry     beta= 0.70
     Davidson diagonalization with overlap
     ethr =  3.66E-09,  avg # of iterations =  1.0

     negative rho (up, down):  7.722E-04 0.000E+00

     total cpu time spent up to now is     1454.7 secs

     End of self-consistent calculation

          k = 0.0000 0.0000 0.0000 (423701 PWs)   bands (ev):

   -28.3991 -25.4534 -21.6412 -20.7338 -19.6486 -17.9045 -17.2137 -16.4182
   -15.2336 -14.8698 -13.8618 -13.4196 -13.2061 -12.9599 -12.6459 -12.3336
   -12.0935 -11.4026 -10.9533 -10.5660  -9.9815  -8.8368  -7.9722  -3.1736
    -3.1666  -3.1660  -2.8429  -2.2430  -1.4935  -1.1759  -0.8050

     the Fermi energy is    -2.9800 ev

!    total energy              =    -259.29284085 Ry
     total all-electron energy =     -1612.143559 Ry
     estimated scf accuracy    <       0.00000070 Ry
     smearing contrib. (-TS)   =      -0.00250571 Ry
     internal energy E=F+TS    =    -259.29033514 Ry

     The total energy is F=E-TS. E is the sum of the following terms:
     one-electron contribution =    -733.08433142 Ry
     hartree contribution      =     371.00232561 Ry
     xc contribution           =     -57.94632966 Ry
     ewald contribution        =     259.11298257 Ry
     one-center paw contrib.   =     -98.37498225 Ry

     convergence has been achieved in  56 iterations

     negative rho (up, down):  7.722E-04 0.000E+00

     Forces acting on atoms (cartesian axes, Ry/au):

     atom    1 type  1   force =    -0.02748628    0.01473862   -0.01178953
     atom    2 type  1   force =     0.02951978   -0.00561194    0.00506582
     atom    3 type  2   force =    -0.02563401   -0.00695840   -0.00112048
     atom    4 type  2   force =    -0.00494528   -0.03928066   -0.00600088
     atom    5 type  2   force =     0.00657242    0.00021607    0.00262055
     atom    6 type  2   force =    -0.00373046    0.00317707    0.00047998
     atom    7 type  2   force =     0.00127544   -0.00019211    0.00841494
     atom    8 type  2   force =     0.00898245   -0.00006888    0.00156374
     atom    9 type  3   force =     0.00432842    0.00395545   -0.00340427
     atom   10 type  3   force =     0.00342435   -0.00152440   -0.00481441
     atom   11 type  3   force =     0.00019329   -0.00496028   -0.00109412
     atom   12 type  3   force =     0.00245673    0.01909658    0.00244954
     atom   13 type  3   force =     0.00203256    0.01964799    0.00266525
     atom   14 type  3   force =    -0.00059069   -0.00483980    0.00187594
     atom   15 type  3   force =    -0.00331557   -0.00076311   -0.00154442
     atom   16 type  3   force =    -0.00228912    0.00380568    0.00308861
     atom   17 type  3   force =    -0.00180191   -0.00093917   -0.00023747
     atom   18 type  3   force =     0.00611877   -0.00038934   -0.00201898
     atom   19 type  3   force =     0.00530158   -0.00157219    0.00378762
     atom   20 type  4   force =    -0.00041247    0.00246283    0.00001256
     The non-local contrib.  to forces
     atom    1 type  1   force =     0.20647099   -0.02591615    0.02563584
     atom    2 type  1   force =    -0.16826799    0.00565036   -0.02697966
     atom    3 type  2   force =     0.40549172    0.07748682    0.11156885
     atom    4 type  2   force =     0.03596785    0.33648482    0.06258064
     atom    5 type  2   force =    -0.13817317   -0.33695625   -0.06550146
     atom    6 type  2   force =     0.05781101   -0.36639667   -0.04237268
     atom    7 type  2   force =     0.05803574    0.02769506   -0.08248584
     atom    8 type  2   force =    -0.40066117    0.20735512   -0.04036272
     atom    9 type  3   force =     0.03241164   -0.05961447    0.03685020
     atom   10 type  3   force =     0.00623200    0.05941139    0.04914143
     atom   11 type  3   force =     0.00953473    0.08115779    0.01331359
     atom   12 type  3   force =     0.05036614   -0.06649049   -0.00118899
     atom   13 type  3   force =    -0.06410341   -0.05012295   -0.01836055
     atom   14 type  3   force =    -0.02750379    0.05989118   -0.03655302
     atom   15 type  3   force =     0.07258868    0.01465158    0.01532092
     atom   16 type  3   force =    -0.00142607   -0.05714914   -0.04872045
     atom   17 type  3   force =     0.00454017    0.07722934    0.01261901
     atom   18 type  3   force =    -0.04996280   -0.02910913    0.05174918
     atom   19 type  3   force =    -0.02822169   -0.01016853   -0.07161523
     atom   20 type  4   force =    -0.00133253    0.00767957    0.00002328
     The ionic contribution  to forces
     atom    1 type  1   force =    -4.94576364    0.39855773   -2.16299076
     atom    2 type  1   force =     7.14700755   -1.85290472    0.64121933
     atom    3 type  2   force =    -6.64083102   -0.63732684   -4.20370482
     atom    4 type  2   force =    -0.17608021   -9.40028445   -1.94104848
     atom    5 type  2   force =    -2.00624399   10.29707519    0.66099373
     atom    6 type  2   force =     5.48583240    8.91916248    2.01156598
     atom    7 type  2   force =    -6.02515315   -1.47524784    3.81879975
     atom    8 type  2   force =     8.06142111   -3.49726057    0.74913442
     atom    9 type  3   force =    -2.14342040    2.23804463   -2.02105179
     atom   10 type  3   force =    -1.18749615   -2.36821821   -2.52038740
     atom   11 type  3   force =    -0.25479870   -3.74818805   -0.70704344
     atom   12 type  3   force =    -1.65941131    3.45027304    0.11048622
     atom   13 type  3   force =     2.59244808    2.70470793    0.81298270
     atom   14 type  3   force =    -0.16127288   -2.48491335    1.95634252
     atom   15 type  3   force =    -3.29798035   -0.67761795   -0.13248224
     atom   16 type  3   force =    -1.08756360    1.88062814    2.39958364
     atom   17 type  3   force =     0.99812478   -3.17839083   -0.35201015
     atom   18 type  3   force =     2.88669593    0.60635180   -1.83818531
     atom   19 type  3   force =     2.10052706   -0.09048672    2.75315396
     atom   20 type  4   force =     0.31395849   -1.08396143   -0.03535786
     The local contribution  to forces
     atom    1 type  1   force =     4.71221671   -0.35796272    2.12551117
     atom    2 type  1   force =    -6.94888120    1.84113200   -0.60917524
     atom    3 type  2   force =     6.21692917    0.55424452    4.09407706
     atom    4 type  2   force =     0.13527600    9.02634575    1.87284773
     atom    5 type  2   force =     2.14643539   -9.96259623   -0.59390089
     atom    6 type  2   force =    -5.54366413   -8.55345756   -1.96860132
     atom    7 type  2   force =     5.96950198    1.44794151   -3.72981407
     atom    8 type  2   force =    -7.65907872    3.29361357   -0.70795898
     atom    9 type  3   force =     2.11529882   -2.17445077    1.98078541
     atom   10 type  3   force =     1.18464532    2.30726808    2.46641217
     atom   11 type  3   force =     0.24544049    3.66196977    0.69262087
     atom   12 type  3   force =     1.61148050   -3.36463903   -0.10684416
     atom   13 type  3   force =    -2.52628058   -2.63488246   -0.79194282
     atom   14 type  3   force =     0.18815426    2.42016962   -1.91789347
     atom   15 type  3   force =     3.22204725    0.66220278    0.11562254
     atom   16 type  3   force =     1.08667256   -1.81965991   -2.34775542
     atom   17 type  3   force =    -1.00442703    3.10018114    0.33915691
     atom   18 type  3   force =    -2.83056743   -0.57763321    1.78440880
     atom   19 type  3   force =    -2.06696272    0.09907574   -2.67772564
     atom   20 type  4   force =    -0.31312183    1.07914255    0.03534147
     The core correction contribution to forces
     atom    1 type  1   force =    -0.00064389    0.00026284    0.00005399
     atom    2 type  1   force =    -0.00012436    0.00059952    0.00005402
     atom    3 type  2   force =    -0.00744507   -0.00135003   -0.00308580
     atom    4 type  2   force =    -0.00018074   -0.00188758   -0.00039802
     atom    5 type  2   force =     0.00447523    0.00292396    0.00105062
     atom    6 type  2   force =    -0.00367493    0.00412841   -0.00006574
     atom    7 type  2   force =    -0.00123715   -0.00058997    0.00197303
     atom    8 type  2   force =     0.00758081   -0.00388523    0.00078683
     atom    9 type  3   force =     0.00000000    0.00000000    0.00000000
     atom   10 type  3   force =     0.00000000    0.00000000    0.00000000
     atom   11 type  3   force =     0.00000000    0.00000000    0.00000000
     atom   12 type  3   force =     0.00000000    0.00000000    0.00000000
     atom   13 type  3   force =     0.00000000    0.00000000    0.00000000
     atom   14 type  3   force =     0.00000000    0.00000000    0.00000000
     atom   15 type  3   force =     0.00000000    0.00000000    0.00000000
     atom   16 type  3   force =     0.00000000    0.00000000    0.00000000
     atom   17 type  3   force =     0.00000000    0.00000000    0.00000000
     atom   18 type  3   force =     0.00000000    0.00000000    0.00000000
     atom   19 type  3   force =     0.00000000    0.00000000    0.00000000
     atom   20 type  4   force =     0.00008838   -0.00043122    0.00000589
     The Hubbard contrib.    to forces
     atom    1 type  1   force =     0.00000000    0.00000000    0.00000000
     atom    2 type  1   force =     0.00000000    0.00000000    0.00000000
     atom    3 type  2   force =     0.00000000    0.00000000    0.00000000
     atom    4 type  2   force =     0.00000000    0.00000000    0.00000000
     atom    5 type  2   force =     0.00000000    0.00000000    0.00000000
     atom    6 type  2   force =     0.00000000    0.00000000    0.00000000
     atom    7 type  2   force =     0.00000000    0.00000000    0.00000000
     atom    8 type  2   force =     0.00000000    0.00000000    0.00000000
     atom    9 type  3   force =     0.00000000    0.00000000    0.00000000
     atom   10 type  3   force =     0.00000000    0.00000000    0.00000000
     atom   11 type  3   force =     0.00000000    0.00000000    0.00000000
     atom   12 type  3   force =     0.00000000    0.00000000    0.00000000
     atom   13 type  3   force =     0.00000000    0.00000000    0.00000000
     atom   14 type  3   force =     0.00000000    0.00000000    0.00000000
     atom   15 type  3   force =     0.00000000    0.00000000    0.00000000
     atom   16 type  3   force =     0.00000000    0.00000000    0.00000000
     atom   17 type  3   force =     0.00000000    0.00000000    0.00000000
     atom   18 type  3   force =     0.00000000    0.00000000    0.00000000
     atom   19 type  3   force =     0.00000000    0.00000000    0.00000000
     atom   20 type  4   force =     0.00000000    0.00000000    0.00000000
     The SCF correction term to forces
     atom    1 type  1   force =     0.00023068   -0.00019795    0.00000142
     atom    2 type  1   force =    -0.00021710   -0.00008398   -0.00005144
     atom    3 type  2   force =     0.00021831   -0.00000774    0.00002541
     atom    4 type  2   force =     0.00006895    0.00006594    0.00001843
     atom    5 type  2   force =     0.00007607   -0.00022548   -0.00002027
     atom    6 type  2   force =    -0.00003768   -0.00025446   -0.00004507
     atom    7 type  2   force =     0.00012514    0.00001427   -0.00005674
     atom    8 type  2   force =    -0.00028246    0.00011335   -0.00003463
     atom    9 type  3   force =     0.00003548   -0.00001880    0.00001310
     atom   10 type  3   force =     0.00004031    0.00001946    0.00002057
     atom   11 type  3   force =     0.00001390    0.00010533    0.00001604
     atom   12 type  3   force =     0.00001853   -0.00004182   -0.00000234
     atom   13 type  3   force =    -0.00003440   -0.00004940   -0.00001289
     atom   14 type  3   force =     0.00002884    0.00001787   -0.00001891
     atom   15 type  3   force =     0.00002597    0.00000561   -0.00000445
     atom   16 type  3   force =     0.00002512   -0.00000828   -0.00001797
     atom   17 type  3   force =    -0.00004271    0.00004630   -0.00000204
     atom   18 type  3   force =    -0.00004981    0.00000633    0.00000953
     atom   19 type  3   force =    -0.00004394    0.00001244   -0.00002430
     atom   20 type  4   force =    -0.00000785    0.00003848    0.00000097

     Total force =     0.075040     Total SCF correction =     0.000693


     Computing stress (Cartesian axis) and pressure


     negative rho (up, down):  7.722E-04 0.000E+00
          total   stress  (Ry/bohr**3)                   (kbar)     P=        0.48
   0.00000568   0.00000017   0.00000054            0.84        0.03        0.08
   0.00000017   0.00000313   0.00000054            0.03        0.46        0.08
   0.00000054   0.00000054   0.00000107            0.08        0.08        0.16


     BFGS Geometry Optimization
     Energy error            =      0.0E+00 Ry
     Gradient error          =      3.9E-02 Ry/Bohr

     number of scf cycles    =   1
     number of bfgs steps    =   0

     energy             new  =    -259.2928408525 Ry

     new trust radius        =       0.0400429298 bohr
     new conv_thr            =       0.0000010000 Ry


ATOMIC_POSITIONS (angstrom)
N             9.5541548871        9.9751993410        9.6394112491
N            11.6972211929        9.6655302869        9.9666307155
C             8.1601350662        9.6945177716        9.3669570657
C            10.5323830731        9.0232135721        9.6731744712
C            10.1098779737       11.2025143399        9.9189367333
C            11.4424259269       11.0148812315       10.1193039948
C             7.3853749349        9.3913983412       10.6334029957
C            12.9743533074        9.0196635497       10.0917774973
H             7.7432905007       10.5659931347        8.8516485402
H             8.1190120901        8.8488933211        8.6738023221
H            10.4105022851        7.9840751332        9.5015710151
H             9.4543000480       12.0636054739        9.9324462431
H            12.2740755845       11.6631972684       10.3563603899
H             7.8007874182        8.5174388866       11.1451427041
H             6.3365454736        9.1834961788       10.3856327305
H             7.4170886502       10.2388138802       11.3252844242
H            12.8682464680        7.9460030138        9.9082243388
H            13.6649379124        9.4455939686        9.3582816003
H            13.3574054770        9.1773680328       11.1040543202
Cl           11.6813817301        1.3760032739        9.8048066489



     Writing config-only to output data dir ./plusCL0.save/
     NEW-OLD atomic charge density approx. for the potential

     negative rho (up, down):  7.662E-04 0.000E+00

     total cpu time spent up to now is     1543.5 secs

     Self-consistent Calculation

     iteration #  1     ecut=    60.00 Ry     beta= 0.70
     Davidson diagonalization with overlap
     ethr =  1.00E-06,  avg # of iterations = 11.0

     negative rho (up, down):  7.564E-04 0.000E+00

     total cpu time spent up to now is     1572.7 secs

     total energy              =    -259.11779284 Ry
     estimated scf accuracy    <       0.21014138 Ry

     iteration #  2     ecut=    60.00 Ry     beta= 0.70
     Davidson diagonalization with overlap
     ethr =  4.04E-04,  avg # of iterations =  5.0

     negative rho (up, down):  9.390E-04 0.000E+00

     total cpu time spent up to now is     1599.1 secs

     total energy              =    -259.32810166 Ry
     estimated scf accuracy    <       0.66050902 Ry

     iteration #  3     ecut=    60.00 Ry     beta= 0.70
     Davidson diagonalization with overlap
     ethr =  4.04E-04,  avg # of iterations =  2.0

     negative rho (up, down):  9.086E-04 0.000E+00

     total cpu time spent up to now is     1624.7 secs

     total energy              =    -259.32373426 Ry
     estimated scf accuracy    <       0.17258416 Ry

     iteration #  4     ecut=    60.00 Ry     beta= 0.70
     Davidson diagonalization with overlap
     ethr =  3.32E-04,  avg # of iterations =  2.0

     negative rho (up, down):  8.841E-04 0.000E+00

     total cpu time spent up to now is     1649.9 secs

     total energy              =    -259.31195743 Ry
     estimated scf accuracy    <       0.10273145 Ry

     iteration #  5     ecut=    60.00 Ry     beta= 0.70
     Davidson diagonalization with overlap
     ethr =  1.98E-04,  avg # of iterations =  1.0

     negative rho (up, down):  8.868E-04 0.000E+00

     total cpu time spent up to now is     1675.1 secs

     total energy              =    -259.29463884 Ry
     estimated scf accuracy    <       0.09615469 Ry

     iteration #  6     ecut=    60.00 Ry     beta= 0.70
     Davidson diagonalization with overlap
     ethr =  1.85E-04,  avg # of iterations =  1.0

     negative rho (up, down):  7.638E-04 0.000E+00

     total cpu time spent up to now is     1700.2 secs

     total energy              =    -259.29238390 Ry
     estimated scf accuracy    <       0.00281778 Ry

     iteration #  7     ecut=    60.00 Ry     beta= 0.70
     Davidson diagonalization with overlap
     ethr =  5.42E-06,  avg # of iterations = 10.0

     negative rho (up, down):  1.427E-03 0.000E+00

     total cpu time spent up to now is     1727.6 secs

     total energy              =    -259.25374450 Ry
     estimated scf accuracy    <       1.89189435 Ry

     iteration #  8     ecut=    60.00 Ry     beta= 0.70
     Davidson diagonalization with overlap
     ethr =  5.42E-06,  avg # of iterations =  3.0

     negative rho (up, down):  8.021E-04 0.000E+00

     total cpu time spent up to now is     1753.2 secs

     total energy              =    -259.29608822 Ry
     estimated scf accuracy    <       0.03486096 Ry

     iteration #  9     ecut=    60.00 Ry     beta= 0.70
     Davidson diagonalization with overlap
     ethr =  5.42E-06,  avg # of iterations =  1.0

     negative rho (up, down):  7.736E-04 0.000E+00

     total cpu time spent up to now is     1778.4 secs

     total energy              =    -259.29466639 Ry
     estimated scf accuracy    <       0.05362961 Ry

     iteration # 10     ecut=    60.00 Ry     beta= 0.70
     Davidson diagonalization with overlap
     ethr =  5.42E-06,  avg # of iterations =  1.0

     negative rho (up, down):  7.801E-04 0.000E+00

     total cpu time spent up to now is     1803.6 secs

     total energy              =    -259.29388065 Ry
     estimated scf accuracy    <       0.01909305 Ry

     iteration # 11     ecut=    60.00 Ry     beta= 0.70
     Davidson diagonalization with overlap
     ethr =  5.42E-06,  avg # of iterations =  1.0

     negative rho (up, down):  7.760E-04 0.000E+00

     total cpu time spent up to now is     1828.9 secs

     total energy              =    -259.29435238 Ry
     estimated scf accuracy    <       0.00107662 Ry

     iteration # 12     ecut=    60.00 Ry     beta= 0.70
     Davidson diagonalization with overlap
     ethr =  2.07E-06,  avg # of iterations =  1.0

     negative rho (up, down):  7.765E-04 0.000E+00

     total cpu time spent up to now is     1854.1 secs

     total energy              =    -259.29428102 Ry
     estimated scf accuracy    <       0.00474832 Ry

     iteration # 13     ecut=    60.00 Ry     beta= 0.70
     Davidson diagonalization with overlap
     ethr =  2.07E-06,  avg # of iterations =  1.0

     negative rho (up, down):  7.801E-04 0.000E+00

     total cpu time spent up to now is     1879.3 secs

     total energy              =    -259.29445838 Ry
     estimated scf accuracy    <       0.00109558 Ry

     iteration # 14     ecut=    60.00 Ry     beta= 0.70
     Davidson diagonalization with overlap
     ethr =  2.07E-06,  avg # of iterations =  1.0

     negative rho (up, down):  7.820E-04 0.000E+00

     total cpu time spent up to now is     1904.5 secs

     total energy              =    -259.29446227 Ry
     estimated scf accuracy    <       0.00010877 Ry

     iteration # 15     ecut=    60.00 Ry     beta= 0.70
     Davidson diagonalization with overlap
     ethr =  2.09E-07,  avg # of iterations =  1.0

     negative rho (up, down):  7.816E-04 0.000E+00

     total cpu time spent up to now is     1929.8 secs

     total energy              =    -259.29446619 Ry
     estimated scf accuracy    <       0.00002072 Ry

     iteration # 16     ecut=    60.00 Ry     beta= 0.70
     Davidson diagonalization with overlap
     ethr =  3.98E-08,  avg # of iterations =  1.0

     negative rho (up, down):  7.815E-04 0.000E+00

     total cpu time spent up to now is     1955.0 secs

     total energy              =    -259.29446625 Ry
     estimated scf accuracy    <       0.00000287 Ry

     iteration # 17     ecut=    60.00 Ry     beta= 0.70
     Davidson diagonalization with overlap
     ethr =  5.53E-09,  avg # of iterations =  1.0

     negative rho (up, down):  7.815E-04 0.000E+00

     total cpu time spent up to now is     1979.7 secs

     End of self-consistent calculation

          k = 0.0000 0.0000 0.0000 (423701 PWs)   bands (ev):

   -28.0639 -25.3142 -21.6004 -20.5564 -19.5876 -17.8131 -17.0088 -16.3956
   -15.1258 -14.9819 -13.7082 -13.3361 -13.2307 -12.8766 -12.5469 -12.2544
   -12.0621 -11.2943 -10.8642 -10.5318  -9.9680  -8.7266  -7.8726  -3.2773
    -3.2707  -3.2701  -2.9532  -2.1553  -1.4628  -1.1492  -0.7923

     the Fermi energy is    -3.0862 ev

!    total energy              =    -259.29446624 Ry
     total all-electron energy =     -1612.145184 Ry
     estimated scf accuracy    <       0.00000006 Ry
     smearing contrib. (-TS)   =      -0.00296155 Ry
     internal energy E=F+TS    =    -259.29150468 Ry

     The total energy is F=E-TS. E is the sum of the following terms:
     one-electron contribution =    -730.82053919 Ry
     hartree contribution      =     369.96639136 Ry
     xc contribution           =     -57.89502104 Ry
     ewald contribution        =     257.83103947 Ry
     one-center paw contrib.   =     -98.37337529 Ry

     convergence has been achieved in  17 iterations

     negative rho (up, down):  7.815E-04 0.000E+00

     Forces acting on atoms (cartesian axes, Ry/au):

     atom    1 type  1   force =     0.01976291   -0.02197577   -0.00679717
     atom    2 type  1   force =    -0.02937697   -0.01021026   -0.00575094
     atom    3 type  2   force =    -0.01427781    0.00203035   -0.00075922
     atom    4 type  2   force =     0.00261924    0.04542737    0.00685833
     atom    5 type  2   force =    -0.01671623    0.00591817   -0.00183258
     atom    6 type  2   force =     0.01818309   -0.00467308    0.00348043
     atom    7 type  2   force =    -0.00847044   -0.00249338    0.00482794
     atom    8 type  2   force =     0.01648543   -0.00375447    0.00247706
     atom    9 type  3   force =    -0.00176301    0.00296922   -0.00382676
     atom   10 type  3   force =     0.00030564   -0.00306257   -0.00518882
     atom   11 type  3   force =    -0.00335327   -0.03104195   -0.00549850
     atom   12 type  3   force =     0.01074130    0.00970456    0.00256928
     atom   13 type  3   force =    -0.00648479    0.01325903    0.00040794
     atom   14 type  3   force =    -0.00025236   -0.00409527    0.00203817
     atom   15 type  3   force =    -0.00025324   -0.00036766    0.00164074
     atom   16 type  3   force =    -0.00174032    0.00341869    0.00304303
     atom   17 type  3   force =    -0.00008435    0.00026004    0.00020542
     atom   18 type  3   force =     0.00783869   -0.00133261   -0.00134599
     atom   19 type  3   force =     0.00723719   -0.00234346    0.00344079
     atom   20 type  4   force =    -0.00040069    0.00236304    0.00001085
     The non-local contrib.  to forces
     atom    1 type  1   force =     0.22369327   -0.04359274    0.04309515
     atom    2 type  1   force =    -0.17958762    0.00028766   -0.03057647
     atom    3 type  2   force =     0.41085557    0.08682893    0.10744750
     atom    4 type  2   force =     0.04444217    0.40985143    0.07124728
     atom    5 type  2   force =    -0.16376503   -0.32448323   -0.07190689
     atom    6 type  2   force =     0.08125286   -0.36828596   -0.03768949
     atom    7 type  2   force =     0.04552838    0.02491440   -0.08673491
     atom    8 type  2   force =    -0.39053781    0.20179414   -0.03918154
     atom    9 type  3   force =     0.03093494   -0.06044570    0.03711030
     atom   10 type  3   force =     0.00489116    0.05957802    0.04968677
     atom   11 type  3   force =     0.00992819    0.08514989    0.01398201
     atom   12 type  3   force =     0.04891944   -0.06494834   -0.00112359
     atom   13 type  3   force =    -0.06254564   -0.04929760   -0.01791344
     atom   14 type  3   force =    -0.02744807    0.06012360   -0.03630579
     atom   15 type  3   force =     0.07174560    0.01444790    0.01564608
     atom   16 type  3   force =    -0.00126848   -0.05738729   -0.04857637
     atom   17 type  3   force =     0.00501003    0.07689132    0.01263964
     atom   18 type  3   force =    -0.04962703   -0.02913018    0.05185063
     atom   19 type  3   force =    -0.02786806   -0.01016293   -0.07159261
     atom   20 type  4   force =    -0.00130659    0.00741533    0.00001421
     The ionic contribution  to forces
     atom    1 type  1   force =    -4.66840299    0.37847099   -2.22487886
     atom    2 type  1   force =     6.79175437   -1.78277224    0.60280169
     atom    3 type  2   force =    -6.65394120   -0.67558148   -4.19678722
     atom    4 type  2   force =    -0.18686923   -9.07766895   -1.87399587
     atom    5 type  2   force =    -1.99106749   10.19791079    0.67878025
     atom    6 type  2   force =     5.46026515    8.79407276    1.99348023
     atom    7 type  2   force =    -6.00532393   -1.47689919    3.88301583
     atom    8 type  2   force =     8.12080348   -3.52056069    0.75514811
     atom    9 type  3   force =    -2.12505706    2.25339764   -2.02728076
     atom   10 type  3   force =    -1.16337490   -2.37196927   -2.52885146
     atom   11 type  3   force =    -0.26232878   -3.79659886   -0.71549312
     atom   12 type  3   force =    -1.62550737    3.41735445    0.11083133
     atom   13 type  3   force =     2.55387574    2.68598163    0.80237732
     atom   14 type  3   force =    -0.15782163   -2.48778649    1.95185744
     atom   15 type  3   force =    -3.28671465   -0.67548375   -0.13349159
     atom   16 type  3   force =    -1.08605902    1.88557627    2.39700004
     atom   17 type  3   force =     0.99023317   -3.17720039   -0.35301541
     atom   18 type  3   force =     2.88450237    0.60700222   -1.84293465
     atom   19 type  3   force =     2.09704507   -0.09151481    2.75673709
     atom   20 type  4   force =     0.31398892   -1.08573064   -0.03530039
     The local contribution  to forces
     atom    1 type  1   force =     4.46581629   -0.35766608    2.17522152
     atom    2 type  1   force =    -6.64215238    1.77161761   -0.57817575
     atom    3 type  2   force =     6.23607756    0.59222818    4.09157754
     atom    4 type  2   force =     0.14541781    8.71759886    1.81036705
     atom    5 type  2   force =     2.13299381   -9.87011788   -0.60986143
     atom    6 type  2   force =    -5.51899146   -8.43472641   -1.95213301
     atom    7 type  2   force =     5.95225774    1.45001690   -3.79336499
     atom    8 type  2   force =    -7.72082061    3.31863871   -0.71421970
     atom    9 type  3   force =     2.09234525   -2.18997518    1.98633953
     atom   10 type  3   force =     1.15877329    2.30932613    2.47396899
     atom   11 type  3   force =     0.24904235    3.68037322    0.69600655
     atom   12 type  3   force =     1.58732283   -3.34268413   -0.10713784
     atom   13 type  3   force =    -2.49780883   -2.62340976   -0.78405337
     atom   14 type  3   force =     0.18500592    2.42356521   -1.91350825
     atom   15 type  3   force =     3.21470695    0.66066986    0.11948686
     atom   16 type  3   force =     1.08557696   -1.82476526   -2.34537622
     atom   17 type  3   force =    -0.99531409    3.10055756    0.34058160
     atom   18 type  3   force =    -2.82702191   -0.57920360    1.78973497
     atom   19 type  3   force =    -2.06192690    0.09933352   -2.68169671
     atom   20 type  4   force =    -0.31316831    1.08108866    0.03529046
     The core correction contribution to forces
     atom    1 type  1   force =    -0.00143498    0.00088912   -0.00023744
     atom    2 type  1   force =     0.00070419    0.00070964    0.00022439
     atom    3 type  2   force =    -0.00735771   -0.00144007   -0.00300913
     atom    4 type  2   force =    -0.00038450   -0.00438915   -0.00076729
     atom    5 type  2   force =     0.00511658    0.00269929    0.00116748
     atom    6 type  2   force =    -0.00431739    0.00436417   -0.00015855
     atom    7 type  2   force =    -0.00098052   -0.00052554    0.00192498
     atom    8 type  2   force =     0.00713681   -0.00365977    0.00074277
     atom    9 type  3   force =     0.00000000    0.00000000    0.00000000
     atom   10 type  3   force =     0.00000000    0.00000000    0.00000000
     atom   11 type  3   force =     0.00000000    0.00000000    0.00000000
     atom   12 type  3   force =     0.00000000    0.00000000    0.00000000
     atom   13 type  3   force =     0.00000000    0.00000000    0.00000000
     atom   14 type  3   force =     0.00000000    0.00000000    0.00000000
     atom   15 type  3   force =     0.00000000    0.00000000    0.00000000
     atom   16 type  3   force =     0.00000000    0.00000000    0.00000000
     atom   17 type  3   force =     0.00000000    0.00000000    0.00000000
     atom   18 type  3   force =     0.00000000    0.00000000    0.00000000
     atom   19 type  3   force =     0.00000000    0.00000000    0.00000000
     atom   20 type  4   force =     0.00008651   -0.00041525    0.00000636
     The Hubbard contrib.    to forces
     atom    1 type  1   force =     0.00000000    0.00000000    0.00000000
     atom    2 type  1   force =     0.00000000    0.00000000    0.00000000
     atom    3 type  2   force =     0.00000000    0.00000000    0.00000000
     atom    4 type  2   force =     0.00000000    0.00000000    0.00000000
     atom    5 type  2   force =     0.00000000    0.00000000    0.00000000
     atom    6 type  2   force =     0.00000000    0.00000000    0.00000000
     atom    7 type  2   force =     0.00000000    0.00000000    0.00000000
     atom    8 type  2   force =     0.00000000    0.00000000    0.00000000
     atom    9 type  3   force =     0.00000000    0.00000000    0.00000000
     atom   10 type  3   force =     0.00000000    0.00000000    0.00000000
     atom   11 type  3   force =     0.00000000    0.00000000    0.00000000
     atom   12 type  3   force =     0.00000000    0.00000000    0.00000000
     atom   13 type  3   force =     0.00000000    0.00000000    0.00000000
     atom   14 type  3   force =     0.00000000    0.00000000    0.00000000
     atom   15 type  3   force =     0.00000000    0.00000000    0.00000000
     atom   16 type  3   force =     0.00000000    0.00000000    0.00000000
     atom   17 type  3   force =     0.00000000    0.00000000    0.00000000
     atom   18 type  3   force =     0.00000000    0.00000000    0.00000000
     atom   19 type  3   force =     0.00000000    0.00000000    0.00000000
     atom   20 type  4   force =     0.00000000    0.00000000    0.00000000
     The SCF correction term to forces
     atom    1 type  1   force =     0.00008998   -0.00007434    0.00000193
     atom    2 type  1   force =    -0.00009687   -0.00005020   -0.00002532
     atom    3 type  2   force =     0.00008662   -0.00000248    0.00001157
     atom    4 type  2   force =     0.00001165    0.00003791    0.00000664
     atom    5 type  2   force =     0.00000457   -0.00008807   -0.00001252
     atom    6 type  2   force =    -0.00002741   -0.00009492   -0.00001928
     atom    7 type  2   force =     0.00004656    0.00000277   -0.00001349
     atom    8 type  2   force =    -0.00009778    0.00003587   -0.00001310
     atom    9 type  3   force =     0.00001252   -0.00000482    0.00000364
     atom   10 type  3   force =     0.00001476    0.00000528    0.00000636
     atom   11 type  3   force =     0.00000364    0.00003653    0.00000553
     atom   12 type  3   force =     0.00000505   -0.00001470   -0.00000115
     atom   13 type  3   force =    -0.00000740   -0.00001252   -0.00000310
     atom   14 type  3   force =     0.00001008    0.00000514   -0.00000575
     atom   15 type  3   force =     0.00000753    0.00000106   -0.00000113
     atom   16 type  3   force =     0.00000887   -0.00000231   -0.00000495
     atom   17 type  3   force =    -0.00001480    0.00001428   -0.00000094
     atom   18 type  3   force =    -0.00001608    0.00000168    0.00000254
     atom   19 type  3   force =    -0.00001426    0.00000349   -0.00000750
     atom   20 type  4   force =    -0.00000256    0.00000767   -0.00000033

     Total force =     0.083741     Total SCF correction =     0.000266


     Computing stress (Cartesian axis) and pressure


     negative rho (up, down):  7.815E-04 0.000E+00
          total   stress  (Ry/bohr**3)                   (kbar)     P=        0.28
   0.00000353   0.00000023   0.00000009            0.52        0.03        0.01
   0.00000023   0.00000122   0.00000024            0.03        0.18        0.04
   0.00000009   0.00000024   0.00000093            0.01        0.04        0.14

     Energy error            =      1.6E-03 Ry
     Gradient error          =      4.5E-02 Ry/Bohr

     number of scf cycles    =   2
     number of bfgs steps    =   1

     energy             old  =    -259.2928408525 Ry
     energy             new  =    -259.2944662350 Ry

     CASE: energy            _new < energy            _old

     new trust radius        =       0.0252872876 bohr
     new conv_thr            =       0.0000001625 Ry


ATOMIC_POSITIONS (angstrom)
N             9.5536493905        9.9711894548        9.6334479262
N            11.6946970849        9.6600675854        9.9659305753
C             8.1473575969        9.6932713423        9.3663477153
C            10.5319398011        9.0289563548        9.6740211014
C            10.1054876396       11.2048033510        9.9190043460
C            11.4481891871       11.0140409471       10.1207521009
C             7.3825565915        9.3904047591       10.6376505101
C            12.9831506581        9.0182311112       10.0931612105
H             7.7438776997       10.5682529822        8.8492253006
H             8.1201163881        8.8473006910        8.6704592385
H            10.4092965322        7.9709632186        9.4991862242
H             9.4590509908       12.0727736706        9.9341205605
H            12.2722230326       11.6738620616       10.3572838679
H             7.8005218198        8.5144998936       11.1464514879
H             6.3354923189        9.1831373897       10.3858038394
H             7.4157725577       10.2411995631       11.3273216089
H            12.8676941527        7.9458295201        9.9082330198
H            13.6696547825        9.4449801207        9.3571919100
H            13.3616599602        9.1760321456       11.1064430971
Cl           11.6811118150        1.3776038375        9.8048143594



     Writing config-only to output data dir ./plusCL0.save/
     NEW-OLD atomic charge density approx. for the potential

     negative rho (up, down):  7.740E-04 0.000E+00

     total cpu time spent up to now is     2067.1 secs

     Self-consistent Calculation

     iteration #  1     ecut=    60.00 Ry     beta= 0.70
     Davidson diagonalization with overlap
     ethr =  1.00E-06,  avg # of iterations =  6.0

     negative rho (up, down):  7.879E-04 0.000E+00

     total cpu time spent up to now is     2095.1 secs

     total energy              =    -259.28093118 Ry
     estimated scf accuracy    <       0.01915161 Ry

     iteration #  2     ecut=    60.00 Ry     beta= 0.70
     Davidson diagonalization with overlap
     ethr =  3.68E-05,  avg # of iterations =  4.0

     negative rho (up, down):  2.466E-03 0.000E+00

     total cpu time spent up to now is     2121.3 secs

     total energy              =    -259.11693416 Ry
     estimated scf accuracy    <       9.11162858 Ry

     iteration #  3     ecut=    60.00 Ry     beta= 0.70
     Davidson diagonalization with overlap
     ethr =  3.68E-05,  avg # of iterations =  4.0

     negative rho (up, down):  1.272E-03 0.000E+00

     total cpu time spent up to now is     2147.4 secs

     total energy              =    -259.29369064 Ry
     estimated scf accuracy    <       0.12694142 Ry

     iteration #  4     ecut=    60.00 Ry     beta= 0.70
     Davidson diagonalization with overlap
     ethr =  3.68E-05,  avg # of iterations =  2.0

     negative rho (up, down):  8.439E-04 0.000E+00

     total cpu time spent up to now is     2172.7 secs

     total energy              =    -259.29667359 Ry
     estimated scf accuracy    <       0.00047930 Ry

     iteration #  5     ecut=    60.00 Ry     beta= 0.70
     Davidson diagonalization with overlap
     ethr =  9.22E-07,  avg # of iterations =  4.0

     negative rho (up, down):  7.913E-04 0.000E+00

     total cpu time spent up to now is     2199.0 secs

     total energy              =    -259.29674734 Ry
     estimated scf accuracy    <       0.00028477 Ry

     iteration #  6     ecut=    60.00 Ry     beta= 0.70
     Davidson diagonalization with overlap
     ethr =  5.48E-07,  avg # of iterations =  1.0

     negative rho (up, down):  7.820E-04 0.000E+00

     total cpu time spent up to now is     2224.2 secs

     total energy              =    -259.29674348 Ry
     estimated scf accuracy    <       0.00022233 Ry

     iteration #  7     ecut=    60.00 Ry     beta= 0.70
     Davidson diagonalization with overlap
     ethr =  4.28E-07,  avg # of iterations =  1.0

     negative rho (up, down):  7.784E-04 0.000E+00

     total cpu time spent up to now is     2249.3 secs

     total energy              =    -259.29673956 Ry
     estimated scf accuracy    <       0.00009797 Ry

     iteration #  8     ecut=    60.00 Ry     beta= 0.70
     Davidson diagonalization with overlap
     ethr =  1.88E-07,  avg # of iterations =  1.0

     negative rho (up, down):  7.773E-04 0.000E+00

     total cpu time spent up to now is     2274.6 secs

     total energy              =    -259.29674222 Ry
     estimated scf accuracy    <       0.00001003 Ry

     iteration #  9     ecut=    60.00 Ry     beta= 0.70
     Davidson diagonalization with overlap
     ethr =  1.93E-08,  avg # of iterations =  4.0

     negative rho (up, down):  7.766E-04 0.000E+00

     total cpu time spent up to now is     2300.2 secs

     total energy              =    -259.29674291 Ry
     estimated scf accuracy    <       0.00000105 Ry

     iteration # 10     ecut=    60.00 Ry     beta= 0.70
     Davidson diagonalization with overlap
     ethr =  2.03E-09,  avg # of iterations =  4.0

     negative rho (up, down):  7.767E-04 0.000E+00

     total cpu time spent up to now is     2325.5 secs

     End of self-consistent calculation

          k = 0.0000 0.0000 0.0000 (423701 PWs)   bands (ev):

   -28.0687 -25.2861 -21.5500 -20.5655 -19.5933 -17.7974 -17.0497 -16.3502
   -15.0966 -14.9389 -13.7052 -13.3296 -13.1606 -12.8857 -12.5277 -12.2585
   -12.0578 -11.3293 -10.8949 -10.5625 -10.0067  -8.7609  -7.8728  -3.2375
    -3.2308  -3.2302  -2.9110  -2.2173  -1.4729  -1.1594  -0.7982

     the Fermi energy is    -3.0455 ev

!    total energy              =    -259.29674297 Ry
     total all-electron energy =     -1612.147461 Ry
     estimated scf accuracy    <       0.00000013 Ry
     smearing contrib. (-TS)   =      -0.00280273 Ry
     internal energy E=F+TS    =    -259.29394025 Ry

     The total energy is F=E-TS. E is the sum of the following terms:
     one-electron contribution =    -729.42712837 Ry
     hartree contribution      =     369.25984144 Ry
     xc contribution           =     -57.85777283 Ry
     ewald contribution        =     257.10357540 Ry
     one-center paw contrib.   =     -98.37245589 Ry

     convergence has been achieved in  10 iterations

     negative rho (up, down):  7.767E-04 0.000E+00

     Forces acting on atoms (cartesian axes, Ry/au):

     atom    1 type  1   force =     0.00872235   -0.00419822   -0.00315259
     atom    2 type  1   force =    -0.00966744    0.00413196   -0.00034059
     atom    3 type  2   force =     0.00282829   -0.00073566   -0.00077685
     atom    4 type  2   force =    -0.00353837    0.00119956   -0.00138434
     atom    5 type  2   force =     0.00300764   -0.00312993   -0.00091558
     atom    6 type  2   force =    -0.00454129   -0.00380386   -0.00005599
     atom    7 type  2   force =    -0.00763807   -0.00165619    0.00288314
     atom    8 type  2   force =     0.00362081   -0.00413591    0.00032579
     atom    9 type  3   force =    -0.00418022    0.00325333   -0.00374442
     atom   10 type  3   force =    -0.00309558   -0.00180009   -0.00350116
     atom   11 type  3   force =    -0.00043483   -0.00381497   -0.00109938
     atom   12 type  3   force =     0.00899979    0.00782735    0.00205755
     atom   13 type  3   force =    -0.00584821    0.00941938    0.00010756
     atom   14 type  3   force =    -0.00102781   -0.00242636    0.00145249
     atom   15 type  3   force =    -0.00191019   -0.00081157    0.00319731
     atom   16 type  3   force =    -0.00191925    0.00159770    0.00224390
     atom   17 type  3   force =     0.00233477   -0.00034042    0.00051095
     atom   18 type  3   force =     0.00759232   -0.00095921   -0.00132393
     atom   19 type  3   force =     0.00710600   -0.00195052    0.00349133
     atom   20 type  4   force =    -0.00041072    0.00233362    0.00002481
     The non-local contrib.  to forces
     atom    1 type  1   force =     0.23309085   -0.03477986    0.06386740
     atom    2 type  1   force =    -0.17942651    0.01697330   -0.02886500
     atom    3 type  2   force =     0.42780111    0.08308142    0.10482441
     atom    4 type  2   force =     0.04094953    0.36939959    0.06071662
     atom    5 type  2   force =    -0.14770607   -0.33096760   -0.07420889
     atom    6 type  2   force =     0.06179971   -0.36669237   -0.04063187
     atom    7 type  2   force =     0.04774853    0.02653109   -0.09234257
     atom    8 type  2   force =    -0.40412510    0.20122445   -0.04145568
     atom    9 type  3   force =     0.02998346   -0.06115823    0.03753034
     atom   10 type  3   force =     0.00358438    0.05931101    0.04968895
     atom   11 type  3   force =     0.00931376    0.08097821    0.01328195
     atom   12 type  3   force =     0.04808367   -0.06558688   -0.00129164
     atom   13 type  3   force =    -0.06159874   -0.05020496   -0.01780534
     atom   14 type  3   force =    -0.02753600    0.06007175   -0.03596765
     atom   15 type  3   force =     0.07184289    0.01444268    0.01610993
     atom   16 type  3   force =    -0.00138097   -0.05742817   -0.04821320
     atom   17 type  3   force =     0.00589423    0.07684363    0.01278025
     atom   18 type  3   force =    -0.04950121   -0.02927428    0.05221574
     atom   19 type  3   force =    -0.02762926   -0.01018958   -0.07192982
     atom   20 type  4   force =    -0.00133446    0.00748330    0.00002390
     The ionic contribution  to forces
     atom    1 type  1   force =    -4.73955367    0.40371451   -2.32566062
     atom    2 type  1   force =     6.85294135   -1.81784190    0.61962414
     atom    3 type  2   force =    -6.62261418   -0.65578765   -4.16478270
     atom    4 type  2   force =    -0.21247213   -9.14688271   -1.86673394
     atom    5 type  2   force =    -1.97017551   10.13110937    0.69805974
     atom    6 type  2   force =     5.42833526    8.74357362    1.99061364
     atom    7 type  2   force =    -5.96875925   -1.47367343    3.92370674
     atom    8 type  2   force =     8.07861315   -3.45948040    0.75646831
     atom    9 type  3   force =    -2.10418562    2.26415230   -2.03002983
     atom   10 type  3   force =    -1.14129399   -2.36549236   -2.52576194
     atom   11 type  3   force =    -0.25225508   -3.71758970   -0.70178669
     atom   12 type  3   force =    -1.60485960    3.41531469    0.11410164
     atom   13 type  3   force =     2.52838066    2.69090190    0.79707880
     atom   14 type  3   force =    -0.15147205   -2.48455385    1.94362652
     atom   15 type  3   force =    -3.28899358   -0.67600387   -0.13776173
     atom   16 type  3   force =    -1.07859880    1.88676927    2.38863104
     atom   17 type  3   force =     0.97459932   -3.17462652   -0.35518468
     atom   18 type  3   force =     2.87303134    0.61151975   -1.84641878
     atom   19 type  3   force =     2.08535313   -0.08801490    2.75747974
     atom   20 type  4   force =     0.31397926   -1.08710810   -0.03526939
     The local contribution  to forces
     atom    1 type  1   force =     4.51660799   -0.37336903    2.25924509
     atom    2 type  1   force =    -6.68363534    1.80500286   -0.59116355
     atom    3 type  2   force =     6.20525733    0.57340709    4.06217348
     atom    4 type  2   force =     0.16823064    8.78200858    1.80518101
     atom    5 type  2   force =     2.11628335   -9.80611166   -0.62590454
     atom    6 type  2   force =    -5.49089801   -8.38491982   -1.94993358
     atom    7 type  2   force =     5.91433981    1.44605384   -3.83033464
     atom    8 type  2   force =    -7.67818689    3.25789061   -0.71543858
     atom    9 type  3   force =     2.07000898   -2.19973131    1.98874774
     atom   10 type  3   force =     1.13458872    2.30436401    2.47255319
     atom   11 type  3   force =     0.24249960    3.63272611    0.68739542
     atom   12 type  3   force =     1.56580121   -3.34192041   -0.11075059
     atom   13 type  3   force =    -2.47266423   -2.63129541   -0.77917347
     atom   14 type  3   force =     0.17796209    2.42204113   -1.90619432
     atom   15 type  3   force =     3.21522747    0.66073972    0.12485206
     atom   16 type  3   force =     1.07805156   -1.82774578   -2.33816783
     atom   17 type  3   force =    -0.97813575    3.09740521    0.34291442
     atom   18 type  3   force =    -2.81591184   -0.58320103    1.79286787
     atom   19 type  3   force =    -2.05059850    0.09625274   -2.68203878
     atom   20 type  4   force =    -0.31312328    1.08220218    0.03526572
     The core correction contribution to forces
     atom    1 type  1   force =    -0.00143677    0.00061595   -0.00053965
     atom    2 type  1   force =     0.00051348    0.00039665    0.00015462
     atom    3 type  2   force =    -0.00771912   -0.00137347   -0.00300797
     atom    4 type  2   force =    -0.00023637   -0.00320343   -0.00051499
     atom    5 type  2   force =     0.00470723    0.00299856    0.00118781
     atom    6 type  2   force =    -0.00381855    0.00442419   -0.00007254
[...]

     total energy              =    -259.33807937 Ry
     estimated scf accuracy    <       0.00001925 Ry

     iteration # 65     ecut=    60.00 Ry     beta= 0.70
     Davidson diagonalization with overlap
     ethr =  2.66E-08,  avg # of iterations =  1.0

     negative rho (up, down):  8.562E-04 0.000E+00

     total cpu time spent up to now is    13526.0 secs

     WARNING: integrated charge=    52.00405457, expected=    52.00000000

     total energy              =    -259.33808801 Ry
     estimated scf accuracy    <       0.00001924 Ry

     iteration # 66     ecut=    60.00 Ry     beta= 0.70
     Davidson diagonalization with overlap
     ethr =  2.66E-08,  avg # of iterations =  1.0

     negative rho (up, down):  8.561E-04 0.000E+00

     total cpu time spent up to now is    13551.2 secs

     WARNING: integrated charge=    52.00462055, expected=    52.00000000

     total energy              =    -259.33814711 Ry
     estimated scf accuracy    <       0.00001916 Ry

     iteration # 67     ecut=    60.00 Ry     beta= 0.70
     Davidson diagonalization with overlap
     ethr =  2.66E-08,  avg # of iterations =  1.0

     negative rho (up, down):  8.559E-04 0.000E+00

     total cpu time spent up to now is    13576.5 secs

     WARNING: integrated charge=    52.00564752, expected=    52.00000000

     total energy              =    -259.33826092 Ry
     estimated scf accuracy    <       0.00001871 Ry

     iteration # 68     ecut=    60.00 Ry     beta= 0.70
     Davidson diagonalization with overlap
     ethr =  2.66E-08,  avg # of iterations =  1.0

     negative rho (up, down):  8.555E-04 0.000E+00

     total cpu time spent up to now is    13601.8 secs

     WARNING: integrated charge=    52.00864689, expected=    52.00000000

     total energy              =    -259.33847312 Ry
     estimated scf accuracy    <       0.00001768 Ry

     iteration # 69     ecut=    60.00 Ry     beta= 0.70
     Davidson diagonalization with overlap
     ethr =  2.66E-08,  avg # of iterations =  2.0
     Minimization algorithm failed to find Fermi energy: reverting to bisection
     Possible cause: smearing is larger than the electronic band-gap.

     negative rho (up, down):  8.576E-04 0.000E+00

     total cpu time spent up to now is    13627.3 secs

     WARNING: integrated charge=    52.00626470, expected=    52.00000000

     total energy              =    -259.33488026 Ry
     estimated scf accuracy    <       0.00150725 Ry

     iteration # 70     ecut=    60.00 Ry     beta= 0.70
     Davidson diagonalization with overlap
     ethr =  2.66E-08,  avg # of iterations =  1.0

     negative rho (up, down):  8.562E-04 0.000E+00

     total cpu time spent up to now is    13652.6 secs

     WARNING: integrated charge=    52.00567645, expected=    52.00000000

     total energy              =    -259.33850834 Ry
     estimated scf accuracy    <       0.00001654 Ry

     iteration # 71     ecut=    60.00 Ry     beta= 0.70
     Davidson diagonalization with overlap
     ethr =  2.66E-08,  avg # of iterations =  1.0

     negative rho (up, down):  8.553E-04 0.000E+00

     total cpu time spent up to now is    13677.9 secs

     WARNING: integrated charge=    52.00886206, expected=    52.00000000

     total energy              =    -259.33837733 Ry
     estimated scf accuracy    <       0.00001711 Ry

     iteration # 72     ecut=    60.00 Ry     beta= 0.70
     Davidson diagonalization with overlap
     ethr =  2.66E-08,  avg # of iterations =  2.0
     Minimization algorithm failed to find Fermi energy: reverting to bisection
     Possible cause: smearing is larger than the electronic band-gap.

     negative rho (up, down):  8.570E-04 0.000E+00

     total cpu time spent up to now is    13703.3 secs

     WARNING: integrated charge=    52.00816652, expected=    52.00000000

     total energy              =    -259.33489073 Ry
     estimated scf accuracy    <       0.00150919 Ry

     iteration # 73     ecut=    60.00 Ry     beta= 0.70
     Davidson diagonalization with overlap
     ethr =  2.66E-08,  avg # of iterations =  1.0

     negative rho (up, down):  8.555E-04 0.000E+00

     total cpu time spent up to now is    13728.6 secs

     WARNING: integrated charge=    52.00794062, expected=    52.00000000

     total energy              =    -259.33868761 Ry
     estimated scf accuracy    <       0.00001536 Ry

     iteration # 74     ecut=    60.00 Ry     beta= 0.70
     Davidson diagonalization with overlap
     ethr =  2.66E-08,  avg # of iterations =  1.0

     negative rho (up, down):  8.553E-04 0.000E+00

     total cpu time spent up to now is    13753.9 secs

     WARNING: integrated charge=    52.00814019, expected=    52.00000000

     total energy              =    -259.33864620 Ry
     estimated scf accuracy    <       0.00001563 Ry

     iteration # 75     ecut=    60.00 Ry     beta= 0.70
     Davidson diagonalization with overlap
     ethr =  2.66E-08,  avg # of iterations =  1.0

     negative rho (up, down):  8.552E-04 0.000E+00

     total cpu time spent up to now is    13779.4 secs

     WARNING: integrated charge=    52.00844234, expected=    52.00000000

     total energy              =    -259.33869557 Ry
     estimated scf accuracy    <       0.00001559 Ry

     iteration # 76     ecut=    60.00 Ry     beta= 0.70
     Davidson diagonalization with overlap
     ethr =  2.66E-08,  avg # of iterations =  1.0

     negative rho (up, down):  8.551E-04 0.000E+00

     total cpu time spent up to now is    13804.7 secs

     WARNING: integrated charge=    52.00875234, expected=    52.00000000

     total energy              =    -259.33876860 Ry
     estimated scf accuracy    <       0.00001531 Ry

     iteration # 77     ecut=    60.00 Ry     beta= 0.70
     Davidson diagonalization with overlap
     ethr =  2.66E-08,  avg # of iterations =  1.0

     negative rho (up, down):  8.551E-04 0.000E+00

     total cpu time spent up to now is    13830.0 secs

     WARNING: integrated charge=    52.00907182, expected=    52.00000000

     total energy              =    -259.33883912 Ry
     estimated scf accuracy    <       0.00001499 Ry

     iteration # 78     ecut=    60.00 Ry     beta= 0.70
     Davidson diagonalization with overlap
     ethr =  2.66E-08,  avg # of iterations =  1.0
     Minimization algorithm failed to find Fermi energy: reverting to bisection
     Possible cause: smearing is larger than the electronic band-gap.

     negative rho (up, down):  8.569E-04 0.000E+00

     total cpu time spent up to now is    13855.3 secs

     WARNING: integrated charge=    52.00877899, expected=    52.00000000

     total energy              =    -259.33489669 Ry
     estimated scf accuracy    <       0.00150273 Ry

     iteration # 79     ecut=    60.00 Ry     beta= 0.70
     Davidson diagonalization with overlap
     ethr =  2.66E-08,  avg # of iterations =  1.0

     negative rho (up, down):  8.554E-04 0.000E+00

     total cpu time spent up to now is    13880.6 secs

     WARNING: integrated charge=    52.00916926, expected=    52.00000000

     total energy              =    -259.33884038 Ry
     estimated scf accuracy    <       0.00001491 Ry

     iteration # 80     ecut=    60.00 Ry     beta= 0.70
     Davidson diagonalization with overlap
     ethr =  2.66E-08,  avg # of iterations =  1.0
     Minimization algorithm failed to find Fermi energy: reverting to bisection
     Possible cause: smearing is larger than the electronic band-gap.

     negative rho (up, down):  8.571E-04 0.000E+00

     total cpu time spent up to now is    13905.9 secs

     WARNING: integrated charge=    52.00895280, expected=    52.00000000

     total energy              =    -259.33489881 Ry
     estimated scf accuracy    <       0.00150572 Ry

     iteration # 81     ecut=    60.00 Ry     beta= 0.70
     Davidson diagonalization with overlap
     ethr =  2.66E-08,  avg # of iterations =  1.0
     Minimization algorithm failed to find Fermi energy: reverting to bisection
     Possible cause: smearing is larger than the electronic band-gap.

     negative rho (up, down):  8.578E-04 0.000E+00

     total cpu time spent up to now is    13931.2 secs

     WARNING: integrated charge=    52.00890612, expected=    52.00000000

     total energy              =    -259.33489817 Ry
     estimated scf accuracy    <       0.00150219 Ry

     iteration # 82     ecut=    60.00 Ry     beta= 0.70
     Davidson diagonalization with overlap
     ethr =  2.66E-08,  avg # of iterations =  1.0

     negative rho (up, down):  8.556E-04 0.000E+00

     total cpu time spent up to now is    13956.5 secs

     WARNING: integrated charge=    52.00877680, expected=    52.00000000

     total energy              =    -259.33887918 Ry
     estimated scf accuracy    <       0.00001476 Ry

     iteration # 83     ecut=    60.00 Ry     beta= 0.70
     Davidson diagonalization with overlap
     ethr =  2.66E-08,  avg # of iterations =  1.0

     negative rho (up, down):  8.552E-04 0.000E+00

     total cpu time spent up to now is    13981.8 secs

     WARNING: integrated charge=    52.00881743, expected=    52.00000000

     total energy              =    -259.33884915 Ry
     estimated scf accuracy    <       0.00001488 Ry

     iteration # 84     ecut=    60.00 Ry     beta= 0.70
     Davidson diagonalization with overlap
     ethr =  2.66E-08,  avg # of iterations =  1.0

     negative rho (up, down):  8.552E-04 0.000E+00

     total cpu time spent up to now is    14007.1 secs

     WARNING: integrated charge=    52.00861496, expected=    52.00000000

     total energy              =    -259.33886042 Ry
     estimated scf accuracy    <       0.00001487 Ry

     iteration # 85     ecut=    60.00 Ry     beta= 0.70
     Davidson diagonalization with overlap
     ethr =  2.66E-08,  avg # of iterations =  1.0

     negative rho (up, down):  8.551E-04 0.000E+00

     total cpu time spent up to now is    14032.3 secs

     WARNING: integrated charge=    52.00851930, expected=    52.00000000

     total energy              =    -259.33880751 Ry
     estimated scf accuracy    <       0.00001505 Ry

     iteration # 86     ecut=    60.00 Ry     beta= 0.70
     Davidson diagonalization with overlap
     ethr =  2.66E-08,  avg # of iterations =  1.0

     negative rho (up, down):  8.551E-04 0.000E+00

     total cpu time spent up to now is    14057.6 secs

     WARNING: integrated charge=    52.00850918, expected=    52.00000000

     total energy              =    -259.33877787 Ry
     estimated scf accuracy    <       0.00001516 Ry

     iteration # 87     ecut=    60.00 Ry     beta= 0.70
     Davidson diagonalization with overlap
     ethr =  2.66E-08,  avg # of iterations =  1.0

     negative rho (up, down):  8.551E-04 0.000E+00

     total cpu time spent up to now is    14082.9 secs

     WARNING: integrated charge=    52.00853594, expected=    52.00000000

     total energy              =    -259.33877350 Ry
     estimated scf accuracy    <       0.00001516 Ry

     iteration # 88     ecut=    60.00 Ry     beta= 0.70
     Davidson diagonalization with overlap
     ethr =  2.66E-08,  avg # of iterations =  1.0

     negative rho (up, down):  8.551E-04 0.000E+00

     total cpu time spent up to now is    14108.2 secs

     WARNING: integrated charge=    52.00847335, expected=    52.00000000

     total energy              =    -259.33878054 Ry
     estimated scf accuracy    <       0.00001516 Ry

     iteration # 89     ecut=    60.00 Ry     beta= 0.70
     Davidson diagonalization with overlap
     ethr =  2.66E-08,  avg # of iterations =  1.0

     negative rho (up, down):  8.552E-04 0.000E+00

     total cpu time spent up to now is    14133.5 secs

     WARNING: integrated charge=    52.00836848, expected=    52.00000000

     total energy              =    -259.33876337 Ry
     estimated scf accuracy    <       0.00001524 Ry

     iteration # 90     ecut=    60.00 Ry     beta= 0.70
     Davidson diagonalization with overlap
     ethr =  2.66E-08,  avg # of iterations =  1.0

     negative rho (up, down):  8.504E-04 0.000E+00

     total cpu time spent up to now is    14158.7 secs

     WARNING: integrated charge=    52.04135093, expected=    52.00000000

     total energy              =    -259.33880718 Ry
     estimated scf accuracy    <       0.00001536 Ry

     iteration # 91     ecut=    60.00 Ry     beta= 0.70
     Davidson diagonalization with overlap
     ethr =  2.66E-08,  avg # of iterations =  4.0
     Minimization algorithm failed to find Fermi energy: reverting to bisection
     Possible cause: smearing is larger than the electronic band-gap.

     negative rho (up, down):  8.552E-04 0.000E+00

     total cpu time spent up to now is    14185.4 secs

     WARNING: integrated charge=    52.01626891, expected=    52.00000000

     total energy              =    -259.33495911 Ry
     estimated scf accuracy    <       0.00244012 Ry

     iteration # 92     ecut=    60.00 Ry     beta= 0.70
     Davidson diagonalization with overlap
     ethr =  2.66E-08,  avg # of iterations =  4.0
     Minimization algorithm failed to find Fermi energy: reverting to bisection
     Possible cause: smearing is larger than the electronic band-gap.

     negative rho (up, down):  8.574E-04 0.000E+00

     total cpu time spent up to now is    14211.8 secs

     WARNING: integrated charge=    52.00970616, expected=    52.00000000

     total energy              =    -259.33490541 Ry
     estimated scf accuracy    <       0.00170892 Ry

     iteration # 93     ecut=    60.00 Ry     beta= 0.70
     Davidson diagonalization with overlap
     ethr =  2.66E-08,  avg # of iterations =  3.0
     Minimization algorithm failed to find Fermi energy: reverting to bisection
     Possible cause: smearing is larger than the electronic band-gap.

     negative rho (up, down):  8.580E-04 0.000E+00

     total cpu time spent up to now is    14237.4 secs

     WARNING: integrated charge=    52.00843115, expected=    52.00000000

     total energy              =    -259.33489263 Ry
     estimated scf accuracy    <       0.00153022 Ry

     iteration # 94     ecut=    60.00 Ry     beta= 0.70
     Davidson diagonalization with overlap
     ethr =  2.66E-08,  avg # of iterations =  1.0

     negative rho (up, down):  8.556E-04 0.000E+00

     total cpu time spent up to now is    14262.8 secs

     WARNING: integrated charge=    52.00832629, expected=    52.00000000

     total energy              =    -259.33874595 Ry
     estimated scf accuracy    <       0.00001479 Ry

     iteration # 95     ecut=    60.00 Ry     beta= 0.70
     Davidson diagonalization with overlap
     ethr =  2.66E-08,  avg # of iterations =  1.0

     negative rho (up, down):  8.553E-04 0.000E+00

     total cpu time spent up to now is    14288.3 secs

     WARNING: integrated charge=    52.00834209, expected=    52.00000000

     total energy              =    -259.33872721 Ry
     estimated scf accuracy    <       0.00001485 Ry

     iteration # 96     ecut=    60.00 Ry     beta= 0.70
     Davidson diagonalization with overlap
     ethr =  2.66E-08,  avg # of iterations =  1.0

     negative rho (up, down):  8.552E-04 0.000E+00

     total cpu time spent up to now is    14313.8 secs

     WARNING: integrated charge=    52.00836748, expected=    52.00000000

     total energy              =    -259.33872989 Ry
     estimated scf accuracy    <       0.00001504 Ry

     iteration # 97     ecut=    60.00 Ry     beta= 0.70
     Davidson diagonalization with overlap
     ethr =  2.66E-08,  avg # of iterations =  1.0

     negative rho (up, down):  8.551E-04 0.000E+00

     total cpu time spent up to now is    14339.2 secs

     WARNING: integrated charge=    52.00840897, expected=    52.00000000

     total energy              =    -259.33873623 Ry
     estimated scf accuracy    <       0.00001509 Ry

     iteration # 98     ecut=    60.00 Ry     beta= 0.70
     Davidson diagonalization with overlap
     ethr =  2.66E-08,  avg # of iterations =  1.0

     negative rho (up, down):  8.551E-04 0.000E+00

     total cpu time spent up to now is    14364.5 secs

     WARNING: integrated charge=    52.00852419, expected=    52.00000000

     total energy              =    -259.33874545 Ry
     estimated scf accuracy    <       0.00001514 Ry

     iteration # 99     ecut=    60.00 Ry     beta= 0.70
     Davidson diagonalization with overlap
     ethr =  2.66E-08,  avg # of iterations =  1.0

     negative rho (up, down):  8.551E-04 0.000E+00

     total cpu time spent up to now is    14389.8 secs

     WARNING: integrated charge=    52.00864090, expected=    52.00000000

     total energy              =    -259.33877591 Ry
     estimated scf accuracy    <       0.00001509 Ry

     iteration #100     ecut=    60.00 Ry     beta= 0.70
     Davidson diagonalization with overlap
     ethr =  2.66E-08,  avg # of iterations =  1.0

     negative rho (up, down):  8.551E-04 0.000E+00

     total cpu time spent up to now is    14415.1 secs

     WARNING: integrated charge=    52.00871589, expected=    52.00000000

     total energy              =    -259.33880753 Ry
     estimated scf accuracy    <       0.00001501 Ry

     End of self-consistent calculation

     convergence NOT achieved after 100 iterations: stopping

     Writing config to output data dir ./plusCL0.save/
     Message from routine punch:
     wavefunctions written to file

     init_run     :     25.77s CPU     27.10s WALL (       1 calls)
     electrons    :  10713.54s CPU  11662.67s WALL (      33 calls)
     update_pot   :    196.00s CPU    198.47s WALL (      32 calls)
     forces       :    509.09s CPU    545.36s WALL (      32 calls)
     stress       :   1617.71s CPU   1705.15s WALL (      32 calls)

     Called by init_run:
     wfcinit      :      1.59s CPU      1.63s WALL (       1 calls)
     potinit      :      3.53s CPU      3.75s WALL (       1 calls)
     hinit0       :      3.12s CPU      3.23s WALL (       1 calls)

     Called by electrons:
     c_bands      :   1234.83s CPU   1244.57s WALL (     451 calls)
     sum_band     :   5231.35s CPU   5693.63s WALL (     451 calls)
     v_of_rho     :    847.72s CPU    882.15s WALL (     478 calls)
     newd         :   3295.69s CPU   3710.18s WALL (     478 calls)
     PAW_pot      :     92.27s CPU     93.64s WALL (     510 calls)
     mix_rho      :    192.11s CPU    192.96s WALL (     451 calls)

     Called by c_bands:
     init_us_2    :     20.85s CPU     21.00s WALL (     935 calls)
     init_us_2:cp :     20.85s CPU     20.99s WALL (     935 calls)
     cegterg      :   1199.36s CPU   1208.94s WALL (     451 calls)

     Called by *egterg:
     cdiaghg      :      1.77s CPU      1.78s WALL (    1598 calls)
     h_psi        :   1049.25s CPU   1058.20s WALL (    1637 calls)
     s_psi        :     33.26s CPU     33.35s WALL (    1637 calls)
     g_psi        :      4.22s CPU      4.25s WALL (    1185 calls)

     Called by h_psi:
     h_psi:calbec :     28.14s CPU     28.27s WALL (    1637 calls)
     vloc_psi     :    978.42s CPU    987.10s WALL (    1637 calls)
     add_vuspsi   :     33.47s CPU     33.58s WALL (    1637 calls)

     General routines
     calbec       :     41.43s CPU     41.62s WALL (    2280 calls)
     fft          :    861.11s CPU    876.86s WALL (    6988 calls)
     ffts         :     24.19s CPU     24.37s WALL (     929 calls)
     fftw         :    701.37s CPU    708.64s WALL (   82815 calls)
     interpolate  :     74.93s CPU     75.35s WALL (     478 calls)
     davcio       :      0.00s CPU      0.03s WALL (      19 calls)

     Parallel routines

     PWSCF        :      3h41m CPU      4h 0m WALL


   This run was terminated on:  14:59: 2  18Jun2025            

=------------------------------------------------------------------------------=
   JOB DONE.
=------------------------------------------------------------------------------=
