
     Program PWSCF v.7.2 starts on 18Jun2025 at 10:58:38 

     This program is part of the open-source Quantum ESPRESSO suite
     for quantum simulation of materials; please cite
         "P. Giannozzi et al., J. Phys.:Condens. Matter 21 395502 (2009);
         "P. Giannozzi et al., J. Phys.:Condens. Matter 29 465901 (2017);
         "P. Giannozzi et al., J. Chem. Phys. 152 154105 (2020);
          URL http://www.quantum-espresso.org", 
     in publications or presentations arising from this work. More details at
     http://www.quantum-espresso.org/quote

     Parallel version (MPI), running on    20 processors

     MPI processes distributed on     1 nodes
     252763 MiB available memory on the printing compute node when the environment starts

     Reading input from pw5.in
Warning: card &CELL ignored
Warning: card / ignored
Warning: card &FCP ignored
Warning: card / ignored
Warning: card &RISM ignored
Warning: card / ignored

     Current dimensions of program PWSCF are:
     Max number of different atomic species (ntypx) = 10
     Max number of k-points (npk) =  40000
     Max angular momentum in pseudopotentials (lmaxx) =  4
     file N.pbe-n-kjpaw_psl.1.0.0.UPF: wavefunction(s)  2S renormalized
     file C.pbe-n-kjpaw_psl.1.0.0.UPF: wavefunction(s)  2S 2P renormalized
     file H.pbe-kjpaw_psl.1.0.0.UPF: wavefunction(s)  1S renormalized
     file Cl.pbe-n-kjpaw_psl.1.0.0.UPF: wavefunction(s)  3S 3P renormalized

     R & G space division:  proc/nbgrp/npool/nimage =      20
     Subspace diagonalization in iterative solution of the eigenvalue problem:
     a serial algorithm will be used


     Parallelization info
     --------------------
     sticks:   dense  smooth     PW     G-vecs:    dense   smooth      PW
     Min        3411    1364    340               669939   169462   21182
     Max        3413    1365    341               669940   169465   21187
     Sum       68237   27281   6817             13398795  3389267  423701

     Using Slab Decomposition



     bravais-lattice index     =            0
     lattice parameter (alat)  =      37.7945  a.u.
     unit-cell volume          =   53986.6760 (a.u.)^3
     number of atoms/cell      =           20
     number of atomic types    =            4
     number of electrons       =        52.00
     number of Kohn-Sham states=           31
     kinetic-energy cutoff     =      60.0000  Ry
     charge density cutoff     =     600.0000  Ry
     scf convergence threshold =      1.0E-06
     mixing beta               =       0.7000
     number of iterations used =            8  plain     mixing
     energy convergence thresh.=      1.0E-04
     force convergence thresh. =      1.0E-03
     Exchange-correlation= SLA  PW   PBX  PBC
                           (   1   4   3   4   0   0   0)
     nstep                     =           50


     celldm(1)=  37.794522  celldm(2)=   0.000000  celldm(3)=   0.000000
     celldm(4)=   0.000000  celldm(5)=   0.000000  celldm(6)=   0.000000

     crystal axes: (cart. coord. in units of alat)
               a(1) = (   1.000000   0.000000   0.000000 )  
               a(2) = (   0.000000   1.000000   0.000000 )  
               a(3) = (   0.000000   0.000000   1.000000 )  

     reciprocal axes: (cart. coord. in units 2 pi/alat)
               b(1) = (  1.000000  0.000000  0.000000 )  
               b(2) = (  0.000000  1.000000  0.000000 )  
               b(3) = (  0.000000  0.000000  1.000000 )  


     PseudoPot. # 1 for N  read from file:
     /home/ebarquero/practicas/pseudo/N.pbe-n-kjpaw_psl.1.0.0.UPF
     MD5 check sum: 14c48229446f9f2d411169a3abcbc3fa
     Pseudo is Projector augmented-wave + core cor, Zval =  5.0
     Generated using &quot;atomic&quot; code by A. Dal Corso  v.6.3
     Shape of augmentation charge: PSQ
     Using radial grid of 1085 points,  4 beta functions with: 
                l(1) =   0
                l(2) =   0
                l(3) =   1
                l(4) =   1
     Q(r) pseudized with 0 coefficients 


     PseudoPot. # 2 for C  read from file:
     /home/ebarquero/practicas/pseudo/C.pbe-n-kjpaw_psl.1.0.0.UPF
     MD5 check sum: 5f16ad9a65e90284d1d834d4ab3b0f7d
     Pseudo is Projector augmented-wave + core cor, Zval =  4.0
     Generated using &quot;atomic&quot; code by A. Dal Corso  v.6.3
     Shape of augmentation charge: PSQ
     Using radial grid of 1073 points,  4 beta functions with: 
                l(1) =   0
                l(2) =   0
                l(3) =   1
                l(4) =   1
     Q(r) pseudized with 0 coefficients 


     PseudoPot. # 3 for H  read from file:
     /home/ebarquero/practicas/pseudo/H.pbe-kjpaw_psl.1.0.0.UPF
     MD5 check sum: d81a744832360e4a8af0b0b5b123bc2a
     Pseudo is Projector augmented-wave, Zval =  1.0
     Generated using &quot;atomic&quot; code by A. Dal Corso  v.6.3MaX
     Shape of augmentation charge: PSQ
     Using radial grid of  929 points,  2 beta functions with: 
                l(1) =   0
                l(2) =   0
     Q(r) pseudized with 0 coefficients 


     PseudoPot. # 4 for Cl read from file:
     /home/ebarquero/practicas/pseudo/Cl.pbe-n-kjpaw_psl.1.0.0.UPF
     MD5 check sum: 530da96d25dcb7781b0586ca00827062
     Pseudo is Projector augmented-wave + core cor, Zval =  7.0
     Generated using &quot;atomic&quot; code by A. Dal Corso  v.6.3
     Shape of augmentation charge: PSQ
     Using radial grid of 1157 points,  6 beta functions with: 
                l(1) =   0
                l(2) =   0
                l(3) =   1
                l(4) =   1
                l(5) =   2
                l(6) =   2
     Q(r) pseudized with 0 coefficients 


     atomic species   valence    mass     pseudopotential
        N              5.00    14.00700     N ( 1.00)
        C              4.00    12.01100     C ( 1.00)
        H              1.00     1.00800     H ( 1.00)
        Cl             7.00    35.45000     Cl( 1.00)

     No symmetry found



   Cartesian axes

     site n.     atom                  positions (alat units)
         1           N   tau(   1) = (   0.4784350   0.4983700   0.4822825  )
         2           N   tau(   2) = (   0.5840800   0.4834250   0.4981975  )
         3           C   tau(   3) = (   0.4086850   0.4849100   0.4683775  )
         4           C   tau(   4) = (   0.5267500   0.4522000   0.4838175  )
         5           C   tau(   5) = (   0.5053200   0.5601200   0.4958775  )
         6           C   tau(   6) = (   0.5722200   0.5506600   0.5059525  )
         7           C   tau(   7) = (   0.3692350   0.4695750   0.5314475  )
         8           C   tau(   8) = (   0.6484800   0.4509850   0.5045475  )
         9           H   tau(   9) = (   0.3870500   0.5281950   0.4426725  )
        10           H   tau(  10) = (   0.4058600   0.4424850   0.4338175  )
        11           H   tau(  11) = (   0.5205200   0.3993350   0.4751075  )
        12           H   tau(  12) = (   0.4726500   0.6026750   0.4965575  )
        13           H   tau(  13) = (   0.6136500   0.5826400   0.5177475  )
        14           H   tau(  14) = (   0.3900550   0.4260000   0.5572075  )
        15           H   tau(  15) = (   0.3169150   0.4591950   0.5193225  )
        16           H   tau(  16) = (   0.3709150   0.5118400   0.5661825  )
        17           H   tau(  17) = (   0.6434600   0.3973250   0.4954175  )
        18           H   tau(  18) = (   0.6830850   0.4722900   0.4679675  )
        19           H   tau(  19) = (   0.6677300   0.4589100   0.5551025  )
        20           Cl  tau(  20) = (   0.4960425   0.3442350   0.4902400  )

     number of k points=     1  Methfessel-Paxton smearing, width (Ry)=  0.0200
                       cart. coord. in units 2pi/alat
        k(    1) = (   0.0000000   0.0000000   0.0000000), wk =   2.0000000

     Dense  grid: 13398795 G-vectors     FFT dimensions: ( 300, 300, 300)

     Smooth grid:  3389267 G-vectors     FFT dimensions: ( 192, 192, 192)

     Estimated max dynamical RAM per process >       2.64 GB

     Estimated total dynamical RAM >      52.81 GB

     Initial potential from superposition of free atoms

     starting charge      51.9996, renormalised to      52.0000

     negative rho (up, down):  5.101E-04 0.000E+00
     Starting wfcs are   47 randomized atomic wfcs
     Checking if some PAW data can be deallocated... 

     total cpu time spent up to now is       49.6 secs

     Self-consistent Calculation

     iteration #  1     ecut=    60.00 Ry     beta= 0.70
     Davidson diagonalization with overlap
     ethr =  1.00E-02,  avg # of iterations =  3.0

     negative rho (up, down):  7.160E-04 0.000E+00

     total cpu time spent up to now is      100.0 secs

     total energy              =    -258.74298554 Ry
     estimated scf accuracy    <       1.89112853 Ry

     iteration #  2     ecut=    60.00 Ry     beta= 0.70
     Davidson diagonalization with overlap
     ethr =  3.64E-03,  avg # of iterations =  4.0

     negative rho (up, down):  8.275E-04 0.000E+00

     total cpu time spent up to now is      151.0 secs

     total energy              =    -259.11982391 Ry
     estimated scf accuracy    <       0.35631749 Ry

     iteration #  3     ecut=    60.00 Ry     beta= 0.70
     Davidson diagonalization with overlap
     ethr =  6.85E-04,  avg # of iterations =  6.0

     negative rho (up, down):  8.728E-04 0.000E+00

     total cpu time spent up to now is      201.0 secs

     total energy              =    -259.18519005 Ry
     estimated scf accuracy    <       0.02214218 Ry

     iteration #  4     ecut=    60.00 Ry     beta= 0.70
     Davidson diagonalization with overlap
     ethr =  4.26E-05,  avg # of iterations =  8.0

     negative rho (up, down):  8.896E-04 0.000E+00

     total cpu time spent up to now is      253.3 secs

     total energy              =    -259.18924652 Ry
     estimated scf accuracy    <       0.01091625 Ry

     iteration #  5     ecut=    60.00 Ry     beta= 0.70
     Davidson diagonalization with overlap
     ethr =  2.10E-05,  avg # of iterations =  2.0

     negative rho (up, down):  8.912E-04 0.000E+00

     total cpu time spent up to now is      302.8 secs

     total energy              =    -259.19151525 Ry
     estimated scf accuracy    <       0.00088718 Ry

     iteration #  6     ecut=    60.00 Ry     beta= 0.70
     Davidson diagonalization with overlap
     ethr =  1.71E-06,  avg # of iterations = 15.0

     negative rho (up, down):  8.925E-04 0.000E+00

     total cpu time spent up to now is      355.2 secs

     total energy              =    -259.19172053 Ry
     estimated scf accuracy    <       0.00015366 Ry

     iteration #  7     ecut=    60.00 Ry     beta= 0.70
     Davidson diagonalization with overlap
     ethr =  2.95E-07,  avg # of iterations =  2.0

     negative rho (up, down):  8.926E-04 0.000E+00

     total cpu time spent up to now is      404.0 secs

     total energy              =    -259.19175481 Ry
     estimated scf accuracy    <       0.00001302 Ry

     iteration #  8     ecut=    60.00 Ry     beta= 0.70
     Davidson diagonalization with overlap
     ethr =  2.50E-08,  avg # of iterations =  2.0

     negative rho (up, down):  8.929E-04 0.000E+00

     total cpu time spent up to now is      453.3 secs

     total energy              =    -259.19175728 Ry
     estimated scf accuracy    <       0.00000176 Ry

     iteration #  9     ecut=    60.00 Ry     beta= 0.70
     Davidson diagonalization with overlap
     ethr =  3.39E-09,  avg # of iterations =  3.0

     negative rho (up, down):  8.928E-04 0.000E+00

     total cpu time spent up to now is      501.3 secs

     End of self-consistent calculation

          k = 0.0000 0.0000 0.0000 (423701 PWs)   bands (ev):

   -26.5694 -23.7272 -20.2329 -19.7169 -18.4886 -18.0751 -16.3342 -15.5356
   -14.4268 -13.5625 -12.2353 -11.8576 -11.6717 -11.4547 -11.1287 -10.8582
   -10.5601  -9.9644  -9.5113  -9.1736  -8.5241  -7.2527  -6.4916  -5.7534
    -5.5489  -3.5585  -0.8362  -0.7782  -0.5867  -0.3520  -0.0657

     the Fermi energy is    -2.0866 ev

!    total energy              =    -259.19175758 Ry
     total all-electron energy =     -1612.042475 Ry
     estimated scf accuracy    <       0.00000030 Ry
     smearing contrib. (-TS)   =       0.00000000 Ry
     internal energy E=F+TS    =    -259.19175758 Ry

     The total energy is F=E-TS. E is the sum of the following terms:
     one-electron contribution =    -844.29915778 Ry
     hartree contribution      =     428.71532894 Ry
     xc contribution           =     -58.32541343 Ry
     ewald contribution        =     313.12485052 Ry
     one-center paw contrib.   =     -98.40736582 Ry

     convergence has been achieved in   9 iterations

     negative rho (up, down):  8.928E-04 0.000E+00

     Forces acting on atoms (cartesian axes, Ry/au):

     atom    1 type  1   force =     0.01181699    0.00782381    0.00241949
     atom    2 type  1   force =    -0.01201527    0.01342551    0.00977155
     atom    3 type  2   force =    -0.02567206   -0.00922166   -0.00661124
     atom    4 type  2   force =     0.08460481    0.25911785   -0.04093452
     atom    5 type  2   force =     0.00536984    0.01581579    0.00716743
     atom    6 type  2   force =     0.00452817    0.02108955    0.00826198
     atom    7 type  2   force =     0.00136998   -0.00011699    0.00949768
     atom    8 type  2   force =     0.00590067    0.00048972   -0.00213446
     atom    9 type  3   force =     0.00394507    0.00643339   -0.00266993
     atom   10 type  3   force =     0.00459483   -0.00238463   -0.00034982
     atom   11 type  3   force =     0.08877032    0.12032618   -0.09200140
     atom   12 type  3   force =     0.00319399    0.02195578    0.00449241
     atom   13 type  3   force =     0.00120975    0.02420351    0.00532330
     atom   14 type  3   force =     0.00113072   -0.00495244   -0.00179087
     atom   15 type  3   force =    -0.00433072   -0.00038559   -0.00191900
     atom   16 type  3   force =    -0.00246799    0.00580617    0.00343126
     atom   17 type  3   force =    -0.00567006   -0.00086357   -0.00034881
     atom   18 type  3   force =     0.00699633    0.00069079   -0.00196846
     atom   19 type  3   force =     0.00556824   -0.00086747    0.00403089
     atom   20 type  4   force =    -0.17884361   -0.47838571    0.09633253
     The non-local contrib.  to forces
     atom    1 type  1   force =     0.13145310    0.05229288    0.06495196
     atom    2 type  1   force =    -0.04486236    0.07771591    0.06825858
     atom    3 type  2   force =     0.36444193    0.11795765    0.12040574
     atom    4 type  2   force =     0.11558913    1.22887683    0.33827606
     atom    5 type  2   force =    -0.14385204   -0.26416564   -0.04262437
     atom    6 type  2   force =     0.07773149   -0.28891460   -0.00963867
     atom    7 type  2   force =     0.01322808    0.06361203   -0.07397352
     atom    8 type  2   force =    -0.33740281    0.21960379   -0.02992722
     atom    9 type  3   force =     0.03178622   -0.05868556    0.03651874
     atom   10 type  3   force =     0.00488311    0.06081157    0.04864470
     atom   11 type  3   force =    -0.01095322    0.02278917    0.02222695
     atom   12 type  3   force =     0.04994959   -0.06492253   -0.00096215
     atom   13 type  3   force =    -0.06325630   -0.04859046   -0.01784088
     atom   14 type  3   force =    -0.02878388    0.06094300   -0.03581430
     atom   15 type  3   force =     0.07160579    0.01484782    0.01538417
     atom   16 type  3   force =    -0.00189425   -0.05643968   -0.04815323
     atom   17 type  3   force =     0.00626055    0.07722188    0.01275627
     atom   18 type  3   force =    -0.04891996   -0.02885104    0.05143168
     atom   19 type  3   force =    -0.02740172   -0.01007162   -0.07101719
     atom   20 type  4   force =    -0.07884698   -0.24003896    0.03700855
     The ionic contribution  to forces
     atom    1 type  1   force =    -5.11343598    2.27197292   -2.26101183
     atom    2 type  1   force =     8.09248805   -0.51177259    0.72137562
     atom    3 type  2   force =    -7.29412675    0.43901169   -4.37543889
     atom    4 type  2   force =     0.70248795   -6.60658770   -2.11313687
     atom    5 type  2   force =    -1.93970445   11.08382841    0.67985202
     atom    6 type  2   force =     5.75886258    9.61154913    2.06018471
     atom    7 type  2   force =    -6.74032913   -0.77749106    4.06054216
     atom    8 type  2   force =     8.91444391   -3.03604372    0.82432859
     atom    9 type  3   force =    -2.22602260    2.39274827   -2.05984672
     atom   10 type  3   force =    -1.45406465   -2.08619340   -2.69338667
     atom   11 type  3   force =     0.75799983   -1.56900276   -1.32028537
     atom   12 type  3   force =    -1.66088605    3.59239063    0.11321168
     atom   13 type  3   force =     2.64596241    2.82092327    0.82341381
     atom   14 type  3   force =    -0.44353002   -2.28201783    2.14101946
     atom   15 type  3   force =    -3.44837817   -0.58673964   -0.10718249
     atom   16 type  3   force =    -1.17862880    2.01138439    2.45840873
     atom   17 type  3   force =     1.35228980   -3.11401871   -0.34029401
     atom   18 type  3   force =     3.02116758    0.67724165   -1.85302577
     atom   19 type  3   force =     2.24779733   -0.01890316    2.80460872
     atom   20 type  4   force =    -1.99439286  -14.31227978    0.43666312
     The local contribution  to forces
     atom    1 type  1   force =     4.99264677   -2.31450643    2.19889189
     atom    2 type  1   force =    -8.05640453    0.44849615   -0.77822406
     atom    3 type  2   force =     6.91078178   -0.56398891    4.25157503
     atom    4 type  2   force =    -0.73206844    5.65423039    1.73905545
     atom    5 type  2   force =     2.08445042  -10.80560509   -0.63078868
     atom    6 type  2   force =    -5.82828098   -9.30434159   -2.04175727
     atom    7 type  2   force =     6.72886727    0.71502422   -3.97887417
     atom    8 type  2   force =    -8.57757730    2.82113626   -0.79717795
     atom    9 type  3   force =     2.19817944   -2.32760162    2.02063778
     atom   10 type  3   force =     1.45374572    2.02299606    2.64434051
     atom   11 type  3   force =    -0.65825202    1.66647465    1.20596766
     atom   12 type  3   force =     1.61414646   -3.50555838   -0.10777444
     atom   13 type  3   force =    -2.58152766   -2.74815795   -0.80026907
     atom   14 type  3   force =     0.47341007    2.21610327   -2.10696716
     atom   15 type  3   force =     3.37239821    0.57150362    0.08987946
     atom   16 type  3   force =     1.17803604   -1.94911808   -2.40681214
     atom   17 type  3   force =    -1.36419543    3.03595846    0.32718145
     atom   18 type  3   force =    -2.96528176   -0.64770274    1.79964469
     atom   19 type  3   force =    -2.21483560    0.02811565   -2.72959997
     atom   20 type  4   force =     1.88409602   14.04505983   -0.37203725
     The core correction contribution to forces
     atom    1 type  1   force =     0.00107097   -0.00118372   -0.00055948
     atom    2 type  1   force =    -0.00276214   -0.00055801   -0.00169134
     atom    3 type  2   force =    -0.00673501   -0.00195951   -0.00327974
     atom    4 type  2   force =    -0.00131422   -0.01693444   -0.00532047
     atom    5 type  2   force =     0.00446240    0.00178370    0.00063804
     atom    6 type  2   force =    -0.00384126    0.00286188   -0.00060125
     atom    7 type  2   force =    -0.00053057   -0.00117239    0.00189264
     atom    8 type  2   force =     0.00650301   -0.00404057    0.00060091
     atom    9 type  3   force =     0.00000000    0.00000000    0.00000000
     atom   10 type  3   force =     0.00000000    0.00000000    0.00000000
     atom   11 type  3   force =     0.00000000    0.00000000    0.00000000
     atom   12 type  3   force =     0.00000000    0.00000000    0.00000000
     atom   13 type  3   force =     0.00000000    0.00000000    0.00000000
     atom   14 type  3   force =     0.00000000    0.00000000    0.00000000
     atom   15 type  3   force =     0.00000000    0.00000000    0.00000000
     atom   16 type  3   force =     0.00000000    0.00000000    0.00000000
     atom   17 type  3   force =     0.00000000    0.00000000    0.00000000
     atom   18 type  3   force =     0.00000000    0.00000000    0.00000000
     atom   19 type  3   force =     0.00000000    0.00000000    0.00000000
     atom   20 type  4   force =     0.01021192    0.02799703   -0.00552375
     The Hubbard contrib.    to forces
     atom    1 type  1   force =     0.00000000    0.00000000    0.00000000
     atom    2 type  1   force =     0.00000000    0.00000000    0.00000000
     atom    3 type  2   force =     0.00000000    0.00000000    0.00000000
     atom    4 type  2   force =     0.00000000    0.00000000    0.00000000
     atom    5 type  2   force =     0.00000000    0.00000000    0.00000000
     atom    6 type  2   force =     0.00000000    0.00000000    0.00000000
     atom    7 type  2   force =     0.00000000    0.00000000    0.00000000
     atom    8 type  2   force =     0.00000000    0.00000000    0.00000000
     atom    9 type  3   force =     0.00000000    0.00000000    0.00000000
     atom   10 type  3   force =     0.00000000    0.00000000    0.00000000
     atom   11 type  3   force =     0.00000000    0.00000000    0.00000000
     atom   12 type  3   force =     0.00000000    0.00000000    0.00000000
     atom   13 type  3   force =     0.00000000    0.00000000    0.00000000
     atom   14 type  3   force =     0.00000000    0.00000000    0.00000000
     atom   15 type  3   force =     0.00000000    0.00000000    0.00000000
     atom   16 type  3   force =     0.00000000    0.00000000    0.00000000
     atom   17 type  3   force =     0.00000000    0.00000000    0.00000000
     atom   18 type  3   force =     0.00000000    0.00000000    0.00000000
     atom   19 type  3   force =     0.00000000    0.00000000    0.00000000
     atom   20 type  4   force =     0.00000000    0.00000000    0.00000000
     The SCF correction term to forces
     atom    1 type  1   force =     0.00007362   -0.00076262    0.00014309
     atom    2 type  1   force =    -0.00048280   -0.00046672    0.00004891
     atom    3 type  2   force =    -0.00004252   -0.00025335    0.00012278
     atom    4 type  2   force =    -0.00009813   -0.00047800    0.00018745
     atom    5 type  2   force =     0.00000500   -0.00003637    0.00008657
     atom    6 type  2   force =     0.00004782   -0.00007604    0.00007062
     atom    7 type  2   force =     0.00012581   -0.00010055   -0.00009328
     atom    8 type  2   force =    -0.00007466   -0.00017681    0.00003737
     atom    9 type  3   force =    -0.00000651   -0.00003847    0.00001643
     atom   10 type  3   force =     0.00002214   -0.00000962    0.00004779
     atom   11 type  3   force =    -0.00003279    0.00005436    0.00008551
     atom   12 type  3   force =    -0.00002453    0.00003529    0.00001347
     atom   13 type  3   force =     0.00002277    0.00001789    0.00001560
     atom   14 type  3   force =     0.00002604    0.00000835   -0.00003271
     atom   15 type  3   force =     0.00003492   -0.00000816   -0.00000399
     atom   16 type  3   force =     0.00001050   -0.00003122   -0.00001594
     atom   17 type  3   force =    -0.00003348   -0.00003596    0.00000364
     atom   18 type  3   force =     0.00002196   -0.00000784   -0.00002291
     atom   19 type  3   force =    -0.00000028   -0.00001910    0.00003549
     atom   20 type  4   force =     0.00007977    0.00086541    0.00021802

     Total force =     0.617076     Total SCF correction =     0.001530


     Computing stress (Cartesian axis) and pressure


     negative rho (up, down):  8.928E-04 0.000E+00
          total   stress  (Ry/bohr**3)                   (kbar)     P=        2.33
   0.00000576   0.00001132  -0.00000121            0.85        1.66       -0.18
   0.00001132   0.00003972  -0.00000151            1.66        5.84       -0.22
  -0.00000121  -0.00000151   0.00000199           -0.18       -0.22        0.29


     BFGS Geometry Optimization
     Energy error            =      0.0E+00 Ry
     Gradient error          =      4.8E-01 Ry/Bohr

     number of scf cycles    =   1
     number of bfgs steps    =   0

     energy             new  =    -259.1917575786 Ry

     new trust radius        =       0.5000000000 bohr
     new conv_thr            =       0.0000010000 Ry


ATOMIC_POSITIONS (angstrom)
N             9.5747159107        9.9713830212        9.6468817355
N            11.6754831483        9.6753347912        9.9689245965
C             8.1606306154        9.6935053460        9.3641842853
C            10.5780714518        9.1759142771        9.6555106478
C            10.1091337316       11.2104516564        9.9211988662
C            11.4467052460       11.0239364789       10.1232560928
C             7.3853974454        9.3914404441       10.6337851720
C            12.9726039711        9.0199493097       10.0898633663
H             7.7430083950       10.5671751734        8.8520907675
H             8.1195391836        8.8484860104        8.6761719087
H            10.4555920729        8.0479568437        9.4553130158
H             9.4546260262       12.0646774635        9.9334370409
H            12.2736158719       11.6651217608       10.3576600387
H             7.8016756394        8.5174787641       11.1432382847
H             6.3360952720        9.1837037000       10.3854730565
H             7.4170435687       10.2397558603       11.3253968189
H            12.8663134323        7.9460603678        9.9081724253
H            13.6652617591        9.4461516762        9.3583478764
H            13.3574347347        9.1777583813       11.1041020866
Cl            9.8298025239        6.6411586739        9.8538419178



     Writing config-only to output data dir ./plusCL5.save/
     NEW-OLD atomic charge density approx. for the potential

     negative rho (up, down):  8.952E-04 0.000E+00

     total cpu time spent up to now is      652.6 secs

     Self-consistent Calculation

     iteration #  1     ecut=    60.00 Ry     beta= 0.70
     Davidson diagonalization with overlap
     ethr =  1.00E-06,  avg # of iterations = 14.0

     negative rho (up, down):  9.123E-04 0.000E+00

     total cpu time spent up to now is      715.8 secs

     total energy              =    -259.32946651 Ry
     estimated scf accuracy    <       0.04641341 Ry

     iteration #  2     ecut=    60.00 Ry     beta= 0.70
     Davidson diagonalization with overlap
     ethr =  8.93E-05,  avg # of iterations =  3.0

     negative rho (up, down):  9.949E-04 0.000E+00

     total cpu time spent up to now is      764.5 secs

     total energy              =    -259.34138933 Ry
     estimated scf accuracy    <       0.01750019 Ry

     iteration #  3     ecut=    60.00 Ry     beta= 0.70
     Davidson diagonalization with overlap
     ethr =  3.37E-05,  avg # of iterations =  3.0

     negative rho (up, down):  9.319E-04 0.000E+00

     total cpu time spent up to now is      812.8 secs

     total energy              =    -259.34503654 Ry
     estimated scf accuracy    <       0.00053549 Ry

     iteration #  4     ecut=    60.00 Ry     beta= 0.70
     Davidson diagonalization with overlap
     ethr =  1.03E-06,  avg # of iterations =  8.0

     negative rho (up, down):  9.245E-04 0.000E+00

     total cpu time spent up to now is      864.7 secs

     total energy              =    -259.34520770 Ry
     estimated scf accuracy    <       0.00017783 Ry

     iteration #  5     ecut=    60.00 Ry     beta= 0.70
     Davidson diagonalization with overlap
     ethr =  3.42E-07,  avg # of iterations =  2.0

     negative rho (up, down):  9.240E-04 0.000E+00

     total cpu time spent up to now is      913.2 secs

     total energy              =    -259.34523372 Ry
     estimated scf accuracy    <       0.00001691 Ry

     iteration #  6     ecut=    60.00 Ry     beta= 0.70
     Davidson diagonalization with overlap
     ethr =  3.25E-08,  avg # of iterations =  3.0

     negative rho (up, down):  9.243E-04 0.000E+00

     total cpu time spent up to now is      962.9 secs

     total energy              =    -259.34523891 Ry
     estimated scf accuracy    <       0.00000484 Ry

     iteration #  7     ecut=    60.00 Ry     beta= 0.70
     Davidson diagonalization with overlap
     ethr =  9.30E-09,  avg # of iterations =  2.0

     negative rho (up, down):  9.245E-04 0.000E+00

     total cpu time spent up to now is     1008.4 secs

     End of self-consistent calculation

          k = 0.0000 0.0000 0.0000 (423701 PWs)   bands (ev):

   -27.6047 -24.3762 -20.3809 -19.4137 -18.5902 -17.0694 -16.6161 -16.1944
   -14.7261 -13.9461 -12.8697 -12.3768 -11.8528 -11.6537 -11.1552 -10.9023
   -10.3640 -10.2109  -9.8381  -9.3163  -8.6811  -7.7444  -6.7035  -4.8580
    -4.8204  -4.1816  -1.1576  -0.8473  -0.5902  -0.4397  -0.1250

     the Fermi energy is    -2.5479 ev

!    total energy              =    -259.34523966 Ry
     total all-electron energy =     -1612.195957 Ry
     estimated scf accuracy    <       0.00000056 Ry
     smearing contrib. (-TS)   =       0.00000000 Ry
     internal energy E=F+TS    =    -259.34523966 Ry

     The total energy is F=E-TS. E is the sum of the following terms:
     one-electron contribution =    -833.39754629 Ry
     hartree contribution      =     422.90254009 Ry
     xc contribution           =     -58.25227493 Ry
     ewald contribution        =     307.79530465 Ry
     one-center paw contrib.   =     -98.39326319 Ry

     convergence has been achieved in   7 iterations

     negative rho (up, down):  9.245E-04 0.000E+00

     Forces acting on atoms (cartesian axes, Ry/au):

     atom    1 type  1   force =    -0.05187705    0.10030750   -0.00641081
     atom    2 type  1   force =     0.14890157    0.11207921    0.04069738
     atom    3 type  2   force =    -0.00159632   -0.00764080    0.00181693
     atom    4 type  2   force =    -0.08023453   -0.26003216   -0.09132236
     atom    5 type  2   force =    -0.00312710    0.04353419    0.01287320
     atom    6 type  2   force =     0.00976379    0.05143109    0.01810209
     atom    7 type  2   force =    -0.00342847   -0.00066063    0.00453704
     atom    8 type  2   force =     0.00052634   -0.00392782   -0.00037705
     atom    9 type  3   force =     0.00380346    0.00547977   -0.00248707
     atom   10 type  3   force =     0.00353050   -0.00837351   -0.00261320
     atom   11 type  3   force =     0.00364640    0.03232712   -0.00246906
     atom   12 type  3   force =     0.00641153    0.01858175    0.00515344
     atom   13 type  3   force =     0.00134258    0.02374316    0.00576394
     atom   14 type  3   force =     0.00196100   -0.00607339   -0.00191447
     atom   15 type  3   force =     0.00027298    0.00040173    0.00039879
     atom   16 type  3   force =    -0.00225911    0.00522848    0.00285358
     atom   17 type  3   force =    -0.00677287    0.00021603    0.00001187
     atom   18 type  3   force =     0.00353259    0.00147807   -0.00144489
     atom   19 type  3   force =     0.00149110   -0.00030477   -0.00027393
     atom   20 type  4   force =    -0.03588838   -0.10779499    0.01710460
     The non-local contrib.  to forces
     atom    1 type  1   force =     0.26996408    0.11673763    0.01106068
     atom    2 type  1   force =    -0.11341728    0.14074130   -0.04660155
     atom    3 type  2   force =     0.42953808    0.14040390    0.13292281
     atom    4 type  2   force =     0.00719846    0.62478148    0.17650805
     atom    5 type  2   force =    -0.14376962   -0.25110441   -0.03971502
     atom    6 type  2   force =     0.07800282   -0.28903332   -0.00488113
     atom    7 type  2   force =     0.01286306    0.08259619   -0.10145821
     atom    8 type  2   force =    -0.37441895    0.24396034   -0.03011904
     atom    9 type  3   force =     0.03106350   -0.05957901    0.03657376
     atom   10 type  3   force =     0.00383066    0.06241982    0.04952200
     atom   11 type  3   force =     0.00317020    0.05193615    0.01279982
     atom   12 type  3   force =     0.04970241   -0.06464473   -0.00081941
     atom   13 type  3   force =    -0.06340412   -0.04912292   -0.01780964
     atom   14 type  3   force =    -0.02901895    0.06190397   -0.03555199
     atom   15 type  3   force =     0.07082813    0.01482312    0.01555253
     atom   16 type  3   force =    -0.00161546   -0.05650972   -0.04804387
     atom   17 type  3   force =     0.00670882    0.07759081    0.01258563
     atom   18 type  3   force =    -0.04947454   -0.02869726    0.05148268
     atom   19 type  3   force =    -0.02757612   -0.00966111   -0.07090188
     atom   20 type  4   force =    -0.00470021   -0.03177835   -0.00566116
     The ionic contribution  to forces
     atom    1 type  1   force =    -6.02795494    1.92810098   -2.19136797
     atom    2 type  1   force =     9.00970541   -0.74401831    1.24089948
     atom    3 type  2   force =    -7.06411124    0.27845315   -4.34022955
     atom    4 type  2   force =     0.22111600   -7.67184733   -2.88609371
     atom    5 type  2   force =    -2.09892809   11.14794870    0.72961878
     atom    6 type  2   force =     5.86637419    9.69627384    2.14432283
     atom    7 type  2   force =    -6.59973409   -0.79851561    4.06590605
     atom    8 type  2   force =     8.76795957   -3.12179471    0.79532515
     atom    9 type  3   force =    -2.19058728    2.38793546   -2.05099566
     atom   10 type  3   force =    -1.36734382   -2.12184102   -2.67405489
     atom   11 type  3   force =     0.40966327   -2.23794960   -1.14620228
     atom   12 type  3   force =    -1.66269026    3.57256582    0.11122213
     atom   13 type  3   force =     2.65078694    2.82050303    0.82458497
     atom   14 type  3   force =    -0.39809893   -2.27588812    2.10778586
     atom   15 type  3   force =    -3.41900771   -0.58069143   -0.11306099
     atom   16 type  3   force =    -1.16628692    2.00538406    2.44223535
     atom   17 type  3   force =     1.28202030   -3.11353283   -0.34222558
     atom   18 type  3   force =     3.00401315    0.66198361   -1.84788200
     atom   19 type  3   force =     2.22428967   -0.03608558    2.78593615
     atom   20 type  4   force =    -1.44118519  -11.79698411    0.34427585
     The local contribution  to forces
     atom    1 type  1   force =     5.70543082   -1.94236798    2.17343918
     atom    2 type  1   force =    -8.74250426    0.71733101   -1.15293178
     atom    3 type  2   force =     6.64108412   -0.42424975    4.21273498
     atom    4 type  2   force =    -0.31026830    6.79027588    2.61939813
     atom    5 type  2   force =     2.23527714  -10.85485426   -0.67757408
     atom    6 type  2   force =    -5.93013214   -9.35893798   -2.12060539
     atom    7 type  2   force =     6.58401273    0.71670584   -3.96235505
     atom    8 type  2   force =    -8.40066530    2.87861896   -0.76624582
     atom    9 type  3   force =     2.16331748   -2.32293638    2.01194877
     atom   10 type  3   force =     1.36705432    2.05106643    2.62195779
     atom   11 type  3   force =    -0.40917950    2.21827583    1.13097137
     atom   12 type  3   force =     1.61936223   -3.48927042   -0.10525137
     atom   13 type  3   force =    -2.58604359   -2.74770749   -0.80102994
     atom   14 type  3   force =     0.42909882    2.20789530   -2.07416525
     atom   15 type  3   force =     3.34844185    0.56626568    0.09788416
     atom   16 type  3   force =     1.16563789   -1.94364629   -2.39134195
     atom   17 type  3   force =    -1.29555126    3.03627657    0.32965565
     atom   18 type  3   force =    -2.95111780   -0.63183098    1.79501876
     atom   19 type  3   force =    -2.19530039    0.04544621   -2.71541857
     atom   20 type  4   force =     1.40820045   11.71440558   -0.32077467
     The core correction contribution to forces
     atom    1 type  1   force =     0.00058702   -0.00277727    0.00034518
     atom    2 type  1   force =    -0.00437434   -0.00230370   -0.00067214
     atom    3 type  2   force =    -0.00820973   -0.00244256   -0.00363526
     atom    4 type  2   force =     0.00219657   -0.00362994   -0.00108698
     atom    5 type  2   force =     0.00463021    0.00147321    0.00056345
     atom    6 type  2   force =    -0.00400558    0.00278491   -0.00073757
     atom    7 type  2   force =    -0.00047397   -0.00148959    0.00228421
     atom    8 type  2   force =     0.00733479   -0.00457860    0.00060082
     atom    9 type  3   force =     0.00000000    0.00000000    0.00000000
     atom   10 type  3   force =     0.00000000    0.00000000    0.00000000
     atom   11 type  3   force =     0.00000000    0.00000000    0.00000000
     atom   12 type  3   force =     0.00000000    0.00000000    0.00000000
     atom   13 type  3   force =     0.00000000    0.00000000    0.00000000
     atom   14 type  3   force =     0.00000000    0.00000000    0.00000000
     atom   15 type  3   force =     0.00000000    0.00000000    0.00000000
     atom   16 type  3   force =     0.00000000    0.00000000    0.00000000
     atom   17 type  3   force =     0.00000000    0.00000000    0.00000000
     atom   18 type  3   force =     0.00000000    0.00000000    0.00000000
     atom   19 type  3   force =     0.00000000    0.00000000    0.00000000
     atom   20 type  4   force =     0.00221628    0.00718518   -0.00084924
     The Hubbard contrib.    to forces
     atom    1 type  1   force =     0.00000000    0.00000000    0.00000000
     atom    2 type  1   force =     0.00000000    0.00000000    0.00000000
     atom    3 type  2   force =     0.00000000    0.00000000    0.00000000
     atom    4 type  2   force =     0.00000000    0.00000000    0.00000000
     atom    5 type  2   force =     0.00000000    0.00000000    0.00000000
     atom    6 type  2   force =     0.00000000    0.00000000    0.00000000
     atom    7 type  2   force =     0.00000000    0.00000000    0.00000000
     atom    8 type  2   force =     0.00000000    0.00000000    0.00000000
     atom    9 type  3   force =     0.00000000    0.00000000    0.00000000
     atom   10 type  3   force =     0.00000000    0.00000000    0.00000000
     atom   11 type  3   force =     0.00000000    0.00000000    0.00000000
     atom   12 type  3   force =     0.00000000    0.00000000    0.00000000
     atom   13 type  3   force =     0.00000000    0.00000000    0.00000000
     atom   14 type  3   force =     0.00000000    0.00000000    0.00000000
     atom   15 type  3   force =     0.00000000    0.00000000    0.00000000
     atom   16 type  3   force =     0.00000000    0.00000000    0.00000000
     atom   17 type  3   force =     0.00000000    0.00000000    0.00000000
     atom   18 type  3   force =     0.00000000    0.00000000    0.00000000
     atom   19 type  3   force =     0.00000000    0.00000000    0.00000000
     atom   20 type  4   force =     0.00000000    0.00000000    0.00000000
     The SCF correction term to forces
     atom    1 type  1   force =     0.00009056    0.00061700    0.00010834
     atom    2 type  1   force =    -0.00051337    0.00033177   -0.00000041
     atom    3 type  2   force =     0.00009705    0.00019732    0.00002018
     atom    4 type  2   force =    -0.00048267    0.00039061   -0.00005163
     atom    5 type  2   force =    -0.00034215    0.00007381   -0.00002370
     atom    6 type  2   force =    -0.00048091    0.00034650   -0.00000042
     atom    7 type  2   force =    -0.00010161    0.00004539    0.00015627
     atom    8 type  2   force =     0.00031082   -0.00013096    0.00005807
     atom    9 type  3   force =     0.00000435    0.00006256   -0.00001772
     atom   10 type  3   force =    -0.00001607   -0.00001588   -0.00004188
     atom   11 type  3   force =    -0.00001298    0.00006761   -0.00004174
     atom   12 type  3   force =     0.00003174   -0.00006606   -0.00000169
     atom   13 type  3   force =    -0.00000206    0.00007340    0.00001477
     atom   14 type  3   force =    -0.00002534    0.00001832    0.00001314
     atom   15 type  3   force =     0.00000529    0.00000722    0.00001931
     atom   16 type  3   force =    -0.00000003    0.00000328    0.00000027
     atom   17 type  3   force =     0.00004385   -0.00011564   -0.00000760
     atom   18 type  3   force =     0.00010637    0.00002556   -0.00006810
     atom   19 type  3   force =     0.00007253   -0.00000144    0.00010660
     atom   20 type  4   force =    -0.00042512   -0.00062043    0.00011005

     Total force =     0.390380     Total SCF correction =     0.001578


     Computing stress (Cartesian axis) and pressure


     negative rho (up, down):  9.245E-04 0.000E+00
          total   stress  (Ry/bohr**3)                   (kbar)     P=        1.65
   0.00000838   0.00000566   0.00000124            1.23        0.83        0.18
   0.00000566   0.00002378   0.00000234            0.83        3.50        0.34
   0.00000124   0.00000234   0.00000142            0.18        0.34        0.21

     Energy error            =      1.5E-01 Ry
     Gradient error          =      2.6E-01 Ry/Bohr

     number of scf cycles    =   2
     number of bfgs steps    =   1

     energy             old  =    -259.1917575786 Ry
     energy             new  =    -259.3452396581 Ry

     CASE: energy            _new < energy            _old

     new trust radius        =       0.3193238640 bohr
     new conv_thr            =       0.0000010000 Ry


ATOMIC_POSITIONS (angstrom)
N             9.5499198986       10.0257394479        9.6440180229
N            11.7512331395        9.7370493219        9.9923574994
C             8.1544251360        9.6875617027        9.3637572451
C            10.5535864501        9.0934089284        9.5989553120
C            10.1086126569       11.2366390488        9.9294632047
C            11.4527835920       11.0553768540       10.1344975081
C             7.3838818458        9.3910687644       10.6381551969
C            12.9741140824        9.0179872419       10.0892190069
H             7.7458321403       10.5714001320        8.8502254604
H             8.1223552918        8.8435864674        8.6747253010
H            10.4760650734        8.0901006519        9.4347833939
H             9.4586635519       12.0790335243        9.9370847446
H            12.2745744096       11.6826604860       10.3618023034
H             7.8029426922        8.5132513784       11.1418576878
H             6.3353334549        9.1838342412       10.3852815107
H             7.4153402869       10.2437176309       11.3276139064
H            12.8615683931        7.9459933934        9.9081057508
H            13.6685809710        9.4470729407        9.3571769657
H            13.3593824251        9.1774168593       11.1048007247
Cl            9.7735545084        6.4845009846        9.8829692546



     Writing config-only to output data dir ./plusCL5.save/
     NEW-OLD atomic charge density approx. for the potential

     negative rho (up, down):  7.011E-04 0.000E+00

     total cpu time spent up to now is     1156.5 secs

     Self-consistent Calculation

     iteration #  1     ecut=    60.00 Ry     beta= 0.70
     Davidson diagonalization with overlap
     ethr =  1.00E-06,  avg # of iterations = 11.0

     negative rho (up, down):  7.924E-04 0.000E+00

     total cpu time spent up to now is     1219.6 secs

     total energy              =    -259.35521687 Ry
     estimated scf accuracy    <       0.05344616 Ry

     iteration #  2     ecut=    60.00 Ry     beta= 0.70
     Davidson diagonalization with overlap
     ethr =  1.03E-04,  avg # of iterations =  3.0

     negative rho (up, down):  1.131E-03 0.000E+00

     total cpu time spent up to now is     1269.2 secs

     total energy              =    -259.36321738 Ry
     estimated scf accuracy    <       0.05492923 Ry

     iteration #  3     ecut=    60.00 Ry     beta= 0.70
     Davidson diagonalization with overlap
     ethr =  1.03E-04,  avg # of iterations =  2.0

     negative rho (up, down):  9.287E-04 0.000E+00

     total cpu time spent up to now is     1317.2 secs

     total energy              =    -259.37526702 Ry
     estimated scf accuracy    <       0.00143409 Ry

     iteration #  4     ecut=    60.00 Ry     beta= 0.70
     Davidson diagonalization with overlap
     ethr =  2.76E-06,  avg # of iterations =  4.0

     negative rho (up, down):  8.948E-04 0.000E+00

     total cpu time spent up to now is     1367.4 secs

     total energy              =    -259.37568774 Ry
     estimated scf accuracy    <       0.00030133 Ry

     iteration #  5     ecut=    60.00 Ry     beta= 0.70
     Davidson diagonalization with overlap
     ethr =  5.79E-07,  avg # of iterations =  2.0

     negative rho (up, down):  8.932E-04 0.000E+00

     total cpu time spent up to now is     1416.2 secs

     total energy              =    -259.37573142 Ry
     estimated scf accuracy    <       0.00006211 Ry

     iteration #  6     ecut=    60.00 Ry     beta= 0.70
     Davidson diagonalization with overlap
     ethr =  1.19E-07,  avg # of iterations =  2.0

     negative rho (up, down):  8.930E-04 0.000E+00

     total cpu time spent up to now is     1465.0 secs

     total energy              =    -259.37574408 Ry
     estimated scf accuracy    <       0.00001032 Ry

     iteration #  7     ecut=    60.00 Ry     beta= 0.70
     Davidson diagonalization with overlap
     ethr =  1.98E-08,  avg # of iterations =  2.0

     negative rho (up, down):  8.935E-04 0.000E+00

     total cpu time spent up to now is     1511.2 secs

     End of self-consistent calculation

          k = 0.0000 0.0000 0.0000 (423701 PWs)   bands (ev):

   -26.9096 -24.3739 -20.5912 -19.3421 -18.6528 -16.8335 -16.5387 -15.8297
   -15.1232 -14.0421 -12.7043 -12.4322 -12.0865 -12.0282 -11.3154 -11.1864
   -11.0149 -10.2292  -9.7890  -9.4007  -8.7644  -7.8324  -6.7103  -4.5351
    -4.4962  -4.2747  -1.8327  -1.2893  -0.8151  -0.5359  -0.1530

     the Fermi energy is    -3.0525 ev

!    total energy              =    -259.37574604 Ry
     total all-electron energy =     -1612.226464 Ry
     estimated scf accuracy    <       0.00000096 Ry
     smearing contrib. (-TS)   =       0.00000000 Ry
     internal energy E=F+TS    =    -259.37574604 Ry

     The total energy is F=E-TS. E is the sum of the following terms:
     one-electron contribution =    -817.50969515 Ry
     hartree contribution      =     414.75892303 Ry
     xc contribution           =     -58.01715661 Ry
     ewald contribution        =     299.77727249 Ry
     one-center paw contrib.   =     -98.38508981 Ry

     convergence has been achieved in   7 iterations

     negative rho (up, down):  8.935E-04 0.000E+00

     Forces acting on atoms (cartesian axes, Ry/au):

     atom    1 type  1   force =     0.07555381   -0.07998688   -0.02286210
     atom    2 type  1   force =    -0.17130123   -0.06896478   -0.06304465
     atom    3 type  2   force =    -0.01341346    0.02889990    0.00097091
     atom    4 type  2   force =     0.06825020    0.20908019    0.05104361
     atom    5 type  2   force =     0.00718009    0.00953248    0.00868494
     atom    6 type  2   force =     0.00239055    0.00933395    0.01069858
     atom    7 type  2   force =    -0.00348775   -0.00169485    0.00347222
     atom    8 type  2   force =     0.04835333    0.01732376    0.01145696
     atom    9 type  3   force =    -0.00553628   -0.00304435   -0.00174721
     atom   10 type  3   force =     0.00750591   -0.00811925   -0.00139930
     atom   11 type  3   force =    -0.01713704   -0.12731675   -0.02767280
     atom   12 type  3   force =    -0.00237601    0.03424910    0.00670643
     atom   13 type  3   force =     0.01308992    0.04424781    0.01163826
     atom   14 type  3   force =     0.00102285   -0.00447519   -0.00152988
     atom   15 type  3   force =     0.00049260   -0.00018531    0.00157505
     atom   16 type  3   force =    -0.00200289    0.00245801    0.00098940
     atom   17 type  3   force =    -0.01433522    0.00147680   -0.00102146
     atom   18 type  3   force =     0.01214974   -0.00607356    0.00158491
     atom   19 type  3   force =     0.01146735   -0.00674460   -0.00105112
     atom   20 type  4   force =    -0.01786650   -0.04999646    0.01150727
     The non-local contrib.  to forces
     atom    1 type  1   force =     0.29869142   -0.01492936   -0.01922337
     atom    2 type  1   force =    -0.18165040    0.02764379   -0.10963486
     atom    3 type  2   force =     0.42538743    0.18720424    0.12906831
     atom    4 type  2   force =     0.09505026    0.89967791    0.31001815
     atom    5 type  2   force =    -0.12909308   -0.30416360   -0.04664871
     atom    6 type  2   force =     0.07288308   -0.33940028   -0.01522509
     atom    7 type  2   force =     0.01918867    0.08802828   -0.11276920
     atom    8 type  2   force =    -0.33259079    0.28138200   -0.01781520
     atom    9 type  3   force =     0.02912096   -0.05942356    0.03587446
     atom   10 type  3   force =     0.00382995    0.06264639    0.04990148
     atom   11 type  3   force =     0.00739667    0.09472174    0.01493554
     atom   12 type  3   force =     0.05188988   -0.06669664   -0.00039648
     atom   13 type  3   force =    -0.06698834   -0.05010381   -0.01815903
     atom   14 type  3   force =    -0.02907805    0.06213377   -0.03496409
     atom   15 type  3   force =     0.07082020    0.01479103    0.01591691
     atom   16 type  3   force =    -0.00148934   -0.05642614   -0.04767056
     atom   17 type  3   force =     0.00626252    0.07809120    0.01241040
     atom   18 type  3   force =    -0.04843837   -0.02904604    0.05108529
     atom   19 type  3   force =    -0.02673461   -0.01009024   -0.07053914
     atom   20 type  4   force =    -0.00335985   -0.00492290    0.00180493
     The ionic contribution  to forces
     atom    1 type  1   force =    -4.89112695    1.76006117   -2.00563908
     atom    2 type  1   force =     7.18493270   -0.73112735    1.05022924
     atom    3 type  2   force =    -6.95930014    0.02591893   -4.30923779
     atom    4 type  2   force =     0.89440047   -6.55204547   -2.94895623
     atom    5 type  2   force =    -1.81002318   10.76764371    0.82641682
     atom    6 type  2   force =     5.29342307    9.47614501    2.10198931
     atom    7 type  2   force =    -6.47962911   -0.82010123    4.09067068
     atom    8 type  2   force =     8.70530770   -3.51544812    0.73620472
     atom    9 type  3   force =    -2.16992971    2.36625158   -2.04427770
     atom   10 type  3   force =    -1.31127866   -2.13194330   -2.65186869
     atom   11 type  3   force =     0.29407630   -2.94838123   -1.12519965
     atom   12 type  3   force =    -1.68855350    3.59518380    0.10874945
     atom   13 type  3   force =     2.68265643    2.85571813    0.83048414
     atom   14 type  3   force =    -0.35973483   -2.26699089    2.07915131
     atom   15 type  3   force =    -3.40555578   -0.57881811   -0.11936072
     atom   16 type  3   force =    -1.15178306    1.99373753    2.42779596
     atom   17 type  3   force =     1.21607425   -3.11575543   -0.34450767
     atom   18 type  3   force =     3.00034511    0.63574775   -1.85594373
     atom   19 type  3   force =     2.21630316   -0.06690731    2.79066514
     atom   20 type  4   force =    -1.26060428  -10.74888915    0.36263448
     The local contribution  to forces
     atom    1 type  1   force =     4.67068353   -1.82679273    2.00144710
     atom    2 type  1   force =    -7.17600765    0.63326568   -1.00501401
     atom    3 type  2   force =     6.52819250   -0.18153615    4.18470670
     atom    4 type  2   force =    -0.91876752    5.87518555    2.69508916
     atom    5 type  2   force =     1.94303344  -10.45650625   -0.77147022
     atom    6 type  2   force =    -5.36054959   -9.13113985   -2.07551684
     atom    7 type  2   force =     6.45753788    0.73179052   -3.97662788
     atom    8 type  2   force =    -8.33062613    3.25587587   -0.70733171
     atom    9 type  3   force =     2.13520702   -2.30986310    2.00663009
     atom   10 type  3   force =     1.31496975    2.06108663    2.60056597
     atom   11 type  3   force =    -0.31862371    2.72631881    1.08268301
     atom   12 type  3   force =     1.63422799   -3.49412636   -0.10162548
     atom   13 type  3   force =    -2.60256833   -2.76141606   -0.80067822
     atom   14 type  3   force =     0.38985074    2.20037228   -2.04572041
     atom   15 type  3   force =     3.33523831    0.56382547    0.10504544
     atom   16 type  3   force =     1.15125203   -1.93489449   -2.37911271
     atom   17 type  3   force =    -1.23673927    3.03911774    0.33107893
     atom   18 type  3   force =    -2.93976734   -0.61277310    1.80643635
     atom   19 type  3   force =    -2.17812702    0.07024967   -2.72115798
     atom   20 type  4   force =     1.24516790   10.70065287   -0.35216471
     The core correction contribution to forces
     atom    1 type  1   force =    -0.00210449    0.00047862    0.00066493
     atom    2 type  1   force =     0.00104324    0.00082271    0.00140506
     atom    3 type  2   force =    -0.00787883   -0.00304975   -0.00349839
     atom    4 type  2   force =    -0.00217334   -0.01436494   -0.00493884
     atom    5 type  2   force =     0.00369842    0.00243130    0.00051858
     atom    6 type  2   force =    -0.00290953    0.00340887   -0.00044764
     atom    7 type  2   force =    -0.00059062   -0.00160446    0.00236655
     atom    8 type  2   force =     0.00604376   -0.00456809    0.00042072
     atom    9 type  3   force =     0.00000000    0.00000000    0.00000000
     atom   10 type  3   force =     0.00000000    0.00000000    0.00000000
     atom   11 type  3   force =     0.00000000    0.00000000    0.00000000
     atom   12 type  3   force =     0.00000000    0.00000000    0.00000000
     atom   13 type  3   force =     0.00000000    0.00000000    0.00000000
     atom   14 type  3   force =     0.00000000    0.00000000    0.00000000
     atom   15 type  3   force =     0.00000000    0.00000000    0.00000000
     atom   16 type  3   force =     0.00000000    0.00000000    0.00000000
     atom   17 type  3   force =     0.00000000    0.00000000    0.00000000
     atom   18 type  3   force =     0.00000000    0.00000000    0.00000000
     atom   19 type  3   force =     0.00000000    0.00000000    0.00000000
     atom   20 type  4   force =     0.00135909    0.00375521   -0.00086280
     The Hubbard contrib.    to forces
     atom    1 type  1   force =     0.00000000    0.00000000    0.00000000
     atom    2 type  1   force =     0.00000000    0.00000000    0.00000000
     atom    3 type  2   force =     0.00000000    0.00000000    0.00000000
     atom    4 type  2   force =     0.00000000    0.00000000    0.00000000
     atom    5 type  2   force =     0.00000000    0.00000000    0.00000000
     atom    6 type  2   force =     0.00000000    0.00000000    0.00000000
     atom    7 type  2   force =     0.00000000    0.00000000    0.00000000
     atom    8 type  2   force =     0.00000000    0.00000000    0.00000000
     atom    9 type  3   force =     0.00000000    0.00000000    0.00000000
     atom   10 type  3   force =     0.00000000    0.00000000    0.00000000
     atom   11 type  3   force =     0.00000000    0.00000000    0.00000000
     atom   12 type  3   force =     0.00000000    0.00000000    0.00000000
     atom   13 type  3   force =     0.00000000    0.00000000    0.00000000
     atom   14 type  3   force =     0.00000000    0.00000000    0.00000000
     atom   15 type  3   force =     0.00000000    0.00000000    0.00000000
     atom   16 type  3   force =     0.00000000    0.00000000    0.00000000
     atom   17 type  3   force =     0.00000000    0.00000000    0.00000000
     atom   18 type  3   force =     0.00000000    0.00000000    0.00000000
     atom   19 type  3   force =     0.00000000    0.00000000    0.00000000
     atom   20 type  4   force =     0.00000000    0.00000000    0.00000000
     The SCF correction term to forces
     atom    1 type  1   force =    -0.00059243    0.00119975   -0.00010659
     atom    2 type  1   force =     0.00037814    0.00043472   -0.00002500
     atom    3 type  2   force =     0.00018284    0.00036695   -0.00006283
     atom    4 type  2   force =    -0.00026240    0.00063147   -0.00016355
     atom    5 type  2   force =    -0.00043824    0.00013165   -0.00012644
     atom    6 type  2   force =    -0.00045922    0.00032452   -0.00009607
     atom    7 type  2   force =     0.00000271    0.00019637   -0.00016284
     atom    8 type  2   force =     0.00021606    0.00008644   -0.00001648
     atom    9 type  3   force =     0.00006272   -0.00000495    0.00003103
     atom   10 type  3   force =    -0.00001787    0.00009537    0.00000703
     atom   11 type  3   force =     0.00001097    0.00002826   -0.00008660
     atom   12 type  3   force =     0.00005689   -0.00010737   -0.00001597
     atom   13 type  3   force =    -0.00001257    0.00005388   -0.00000354
     atom   14 type  3   force =    -0.00001774    0.00001398    0.00000840
     atom   15 type  3   force =    -0.00001287    0.00002063   -0.00002148
     atom   16 type  3   force =     0.00001475    0.00004543   -0.00001820
     atom   17 type  3   force =     0.00006454    0.00002761    0.00000197
     atom   18 type  3   force =     0.00000760    0.00000215    0.00001208
     atom   19 type  3   force =     0.00002308    0.00000762   -0.00001405
     atom   20 type  4   force =    -0.00043209   -0.00058816    0.00010045

     Total force =     0.361118     Total SCF correction =     0.002016


     Computing stress (Cartesian axis) and pressure


     negative rho (up, down):  8.935E-04 0.000E+00
          total   stress  (Ry/bohr**3)                   (kbar)     P=        0.61
  -0.00000178   0.00000234  -0.00000086           -0.26        0.34       -0.13
   0.00000234   0.00001402   0.00000099            0.34        2.06        0.15
  -0.00000086   0.00000099   0.00000025           -0.13        0.15        0.04

     Energy error            =      3.1E-02 Ry
     Gradient error          =      2.1E-01 Ry/Bohr

     number of scf cycles    =   3
     number of bfgs steps    =   2

     energy             old  =    -259.3452396581 Ry
     energy             new  =    -259.3757460425 Ry

     CASE: energy            _new < energy            _old

     new trust radius        =       0.0864605321 bohr
     new conv_thr            =       0.0000010000 Ry


ATOMIC_POSITIONS (angstrom)
N             9.5680035000       10.0127781033        9.6349147348
N            11.7144647189        9.7295473120        9.9761051088
C             8.1504721025        9.6968894422        9.3646347514
C            10.5619134204        9.1167322433        9.6044291814
C            10.1104428607       11.2460592140        9.9342105759
C            11.4549467826       11.0657355747       10.1407125761
C             7.3820774965        9.3903769594       10.6397011647
C            12.9909354438        9.0234445367       10.0932651856
H             7.7443199799       10.5709232554        8.8493340158
H             8.1253532199        8.8395428824        8.6738462055
H            10.4671533054        8.0456984356        9.4282752914
H             9.4586906178       12.0930543258        9.9400554965
H            12.2793277246       11.7008961691       10.3665654169
H             7.8035590146        8.5109402460       11.1410962789
H             6.3357169796        9.1838459622       10.3859703342
H             7.4143862787       10.2451576996       11.3282660591
H            12.8557171892        7.9465785341        9.9077626648
H            13.6731155001        9.4451415879        9.3575878238
H            13.3634193346        9.1750366923       11.1042327131
Cl            9.7687345302        6.4690208241        9.8858844211



     Writing config-only to output data dir ./plusCL5.save/
     NEW-OLD atomic charge density approx. for the potential

     negative rho (up, down):  8.107E-04 0.000E+00

     total cpu time spent up to now is     1659.3 secs

     Self-consistent Calculation

     iteration #  1     ecut=    60.00 Ry     beta= 0.70
     Davidson diagonalization with overlap
     ethr =  1.00E-06,  avg # of iterations = 16.0

     negative rho (up, down):  8.641E-04 0.000E+00

     total cpu time spent up to now is     1718.6 secs

     total energy              =    -259.40675262 Ry
     estimated scf accuracy    <       0.00411076 Ry

     iteration #  2     ecut=    60.00 Ry     beta= 0.70
     Davidson diagonalization with overlap
     ethr =  7.91E-06,  avg # of iterations =  2.0

     negative rho (up, down):  8.977E-04 0.000E+00

     total cpu time spent up to now is     1767.6 secs

     total energy              =    -259.40736068 Ry
     estimated scf accuracy    <       0.00103543 Ry

     iteration #  3     ecut=    60.00 Ry     beta= 0.70
     Davidson diagonalization with overlap
     ethr =  1.99E-06,  avg # of iterations =  2.0

     negative rho (up, down):  9.006E-04 0.000E+00

     total cpu time spent up to now is     1816.4 secs

     total energy              =    -259.40761373 Ry
     estimated scf accuracy    <       0.00031148 Ry

     iteration #  4     ecut=    60.00 Ry     beta= 0.70
     Davidson diagonalization with overlap
     ethr =  5.99E-07,  avg # of iterations =  2.0

     negative rho (up, down):  9.004E-04 0.000E+00

     total cpu time spent up to now is     1865.1 secs

     total energy              =    -259.40768105 Ry
     estimated scf accuracy    <       0.00003240 Ry

     iteration #  5     ecut=    60.00 Ry     beta= 0.70
     Davidson diagonalization with overlap
     ethr =  6.23E-08,  avg # of iterations =  2.0

     negative rho (up, down):  9.005E-04 0.000E+00

     total cpu time spent up to now is     1913.9 secs

     total energy              =    -259.40768880 Ry
     estimated scf accuracy    <       0.00000583 Ry

     iteration #  6     ecut=    60.00 Ry     beta= 0.70
     Davidson diagonalization with overlap
     ethr =  1.12E-08,  avg # of iterations =  2.0

     negative rho (up, down):  9.008E-04 0.000E+00

     total cpu time spent up to now is     1961.5 secs

     End of self-consistent calculation

          k = 0.0000 0.0000 0.0000 (423701 PWs)   bands (ev):

   -27.0645 -24.1936 -20.4270 -19.4219 -18.5575 -16.7403 -16.5461 -15.9550
   -14.9869 -13.9760 -12.6983 -12.2891 -12.0006 -11.8016 -11.1986 -11.0864
   -10.9085 -10.3679  -9.8548  -9.3711  -8.7604  -7.8210  -6.8035  -4.5516
    -4.5123  -4.3043  -1.4807  -1.3145  -0.8012  -0.5291  -0.1667

     the Fermi energy is    -3.0040 ev

!    total energy              =    -259.40768992 Ry
     total all-electron energy =     -1612.258408 Ry
     estimated scf accuracy    <       0.00000061 Ry
     smearing contrib. (-TS)   =       0.00000000 Ry
     internal energy E=F+TS    =    -259.40768992 Ry

     The total energy is F=E-TS. E is the sum of the following terms:
     one-electron contribution =    -816.60086431 Ry
     hartree contribution      =     414.34592539 Ry
     xc contribution           =     -57.98970875 Ry
     ewald contribution        =     299.22117340 Ry
     one-center paw contrib.   =     -98.38421564 Ry

     convergence has been achieved in   6 iterations

     negative rho (up, down):  9.008E-04 0.000E+00

     Forces acting on atoms (cartesian axes, Ry/au):

     atom    1 type  1   force =     0.01946095   -0.00955939   -0.01319133
     atom    2 type  1   force =    -0.04345628   -0.03196192   -0.02684858
     atom    3 type  2   force =     0.00531422   -0.00126323   -0.00316415
     atom    4 type  2   force =     0.03829607    0.03807934    0.00794213
     atom    5 type  2   force =     0.00510877    0.00014855    0.00538070
     atom    6 type  2   force =    -0.00950188    0.00375798    0.00588273
     atom    7 type  2   force =     0.00262057    0.00237749    0.00313964
     atom    8 type  2   force =    -0.01069872    0.00679338   -0.00400987
     atom    9 type  3   force =    -0.00563559    0.00490270   -0.00447155
     atom   10 type  3   force =     0.00461990    0.00290640    0.00596617
     atom   11 type  3   force =    -0.01179807   -0.03430247   -0.00595932
     atom   12 type  3   force =    -0.00077128    0.02563665    0.00601066
     atom   13 type  3   force =     0.00810063    0.03167262    0.00926278
     atom   14 type  3   force =     0.00053827   -0.00289490   -0.00238826
     atom   15 type  3   force =    -0.00183129   -0.00053681    0.00102947
     atom   16 type  3   force =    -0.00257184    0.00073663    0.00144445
     atom   17 type  3   force =    -0.00755063    0.00982010    0.00114982
     atom   18 type  3   force =     0.01426489    0.00010619   -0.00365852
     atom   19 type  3   force =     0.01042752   -0.00115296    0.00813995
     atom   20 type  4   force =    -0.01493620   -0.04526634    0.00834307
     The non-local contrib.  to forces
     atom    1 type  1   force =     0.27379565    0.02449414    0.01129028
     atom    2 type  1   force =    -0.14687182    0.05459595   -0.07717736
     atom    3 type  2   force =     0.44010179    0.14955846    0.12173769
     atom    4 type  2   force =     0.08112446    0.77830896    0.25504214
     atom    5 type  2   force =    -0.13272819   -0.30427506   -0.05482793
     atom    6 type  2   force =     0.06534554   -0.33526055   -0.02294486
     atom    7 type  2   force =     0.02423589    0.09235596   -0.11260708
     atom    8 type  2   force =    -0.38498336    0.25842756   -0.03618442
     atom    9 type  3   force =     0.02995083   -0.06047959    0.03717267
     atom   10 type  3   force =     0.00290565    0.06114942    0.04790379
     atom   11 type  3   force =     0.00627486    0.07473317    0.01260297
     atom   12 type  3   force =     0.05095153   -0.06609704   -0.00029931
     atom   13 type  3   force =    -0.06539168   -0.05002787   -0.01762943
     atom   14 type  3   force =    -0.02912933    0.06199480   -0.03466172
     atom   15 type  3   force =     0.07118776    0.01486147    0.01610414
     atom   16 type  3   force =    -0.00162723   -0.05641250   -0.04729797
     atom   17 type  3   force =     0.00822765    0.07621461    0.01244239
     atom   18 type  3   force =    -0.04924557   -0.02931853    0.05310676
     atom   19 type  3   force =    -0.02706233   -0.00968546   -0.07298337
     atom   20 type  4   force =     0.00337544    0.00571107   -0.00499793
     The ionic contribution  to forces
     atom    1 type  1   force =    -5.20945849    1.84851342   -2.18712338
     atom    2 type  1   force =     7.79926365   -0.79604599    1.02138072
     atom    3 type  2   force =    -6.88917618    0.11717523   -4.24681529
     atom    4 type  2   force =     0.72068921   -7.20492194   -3.04084033
     atom    5 type  2   force =    -1.98900886   10.72948377    0.86745325
     atom    6 type  2   force =     5.50266841    9.42467778    2.22394462
     atom    7 type  2   force =    -6.43352476   -0.82942499    4.08300963
     atom    8 type  2   force =     8.49111335   -3.25751940    0.76949569
     atom    9 type  3   force =    -2.17063460    2.37770100   -2.05620079
     atom   10 type  3   force =    -1.29700888   -2.10789049   -2.61188290
     atom   11 type  3   force =     0.31165852   -2.64932151   -1.09135573
     atom   12 type  3   force =    -1.67978437    3.56261087    0.10627236
     atom   13 type  3   force =     2.65725267    2.81851302    0.81963384
     atom   14 type  3   force =    -0.35400835   -2.26213642    2.06655689
     atom   15 type  3   force =    -3.40831620   -0.58040860   -0.12296920
     atom   16 type  3   force =    -1.14553976    1.99096626    2.41931307
     atom   17 type  3   force =     1.18387663   -3.07522310   -0.34080973
     atom   18 type  3   force =     2.98625962    0.64400830   -1.87467657
     atom   19 type  3   force =     2.19295238   -0.06280490    2.81151737
     atom   20 type  4   force =    -1.26927402  -10.68795231    0.38409651
     The local contribution  to forces
     atom    1 type  1   force =     4.95598368   -1.88252190    2.16239378
     atom    2 type  1   force =    -7.69445492    0.70897212   -0.97154832
     atom    3 type  2   force =     6.46231783   -0.26585612    4.12533628
     atom    4 type  2   force =    -0.76171691    6.47388629    2.79713458
     atom    5 type  2   force =     2.12291641  -10.42752358   -0.80785689
     atom    6 type  2   force =    -5.57364336   -9.08933989   -2.19455722
     atom    7 type  2   force =     6.41258218    0.74107243   -3.96971962
     atom    8 type  2   force =    -8.12449026    3.01048826   -0.73809094
     atom    9 type  3   force =     2.13499185   -2.31237810    2.01458031
     atom   10 type  3   force =     1.29867783    2.04965969    2.56998814
     atom   11 type  3   force =    -0.32970218    2.54026902    1.07282071
     atom   12 type  3   force =     1.62798803   -3.47074027   -0.09993831
     atom   13 type  3   force =    -2.58372523   -2.73682778   -0.79272152
     atom   14 type  3   force =     0.38365482    2.19724684   -2.03428954
     atom   15 type  3   force =     3.33530742    0.56501443    0.10789313
     atom   16 type  3   force =     1.14456083   -1.93383942   -2.37057194
     atom   17 type  3   force =    -1.19966082    3.00894569    0.32954859
     atom   18 type  3   force =    -2.92283135   -0.61462422    1.81799895
     atom   19 type  3   force =    -2.15551484    0.07132539   -2.73048566
     atom   20 type  4   force =     1.24993747   10.63362812   -0.37019604
     The core correction contribution to forces
     atom    1 type  1   force =    -0.00110537   -0.00077263    0.00020387
     atom    2 type  1   force =    -0.00074048    0.00001927    0.00060449
     atom    3 type  2   force =    -0.00837899   -0.00235358   -0.00341852
     atom    4 type  2   force =    -0.00134347   -0.00962434   -0.00332927
     atom    5 type  2   force =     0.00415479    0.00271352    0.00073630
     atom    6 type  2   force =    -0.00324311    0.00359033   -0.00042387
     atom    7 type  2   force =    -0.00073704   -0.00165579    0.00232615
     atom    8 type  2   force =     0.00763300   -0.00457739    0.00079383
     atom    9 type  3   force =     0.00000000    0.00000000    0.00000000
     atom   10 type  3   force =     0.00000000    0.00000000    0.00000000
     atom   11 type  3   force =     0.00000000    0.00000000    0.00000000
     atom   12 type  3   force =     0.00000000    0.00000000    0.00000000
     atom   13 type  3   force =     0.00000000    0.00000000    0.00000000
     atom   14 type  3   force =     0.00000000    0.00000000    0.00000000
     atom   15 type  3   force =     0.00000000    0.00000000    0.00000000
     atom   16 type  3   force =     0.00000000    0.00000000    0.00000000
     atom   17 type  3   force =     0.00000000    0.00000000    0.00000000
     atom   18 type  3   force =     0.00000000    0.00000000    0.00000000
     atom   19 type  3   force =     0.00000000    0.00000000    0.00000000
     atom   20 type  4   force =     0.00098184    0.00312137   -0.00046572
     The Hubbard contrib.    to forces
     atom    1 type  1   force =     0.00000000    0.00000000    0.00000000
     atom    2 type  1   force =     0.00000000    0.00000000    0.00000000
     atom    3 type  2   force =     0.00000000    0.00000000    0.00000000
     atom    4 type  2   force =     0.00000000    0.00000000    0.00000000
     atom    5 type  2   force =     0.00000000    0.00000000    0.00000000
     atom    6 type  2   force =     0.00000000    0.00000000    0.00000000
     atom    7 type  2   force =     0.00000000    0.00000000    0.00000000
     atom    8 type  2   force =     0.00000000    0.00000000    0.00000000
     atom    9 type  3   force =     0.00000000    0.00000000    0.00000000
     atom   10 type  3   force =     0.00000000    0.00000000    0.00000000
     atom   11 type  3   force =     0.00000000    0.00000000    0.00000000
     atom   12 type  3   force =     0.00000000    0.00000000    0.00000000
     atom   13 type  3   force =     0.00000000    0.00000000    0.00000000
     atom   14 type  3   force =     0.00000000    0.00000000    0.00000000
     atom   15 type  3   force =     0.00000000    0.00000000    0.00000000
     atom   16 type  3   force =     0.00000000    0.00000000    0.00000000
     atom   17 type  3   force =     0.00000000    0.00000000    0.00000000
     atom   18 type  3   force =     0.00000000    0.00000000    0.00000000
     atom   19 type  3   force =     0.00000000    0.00000000    0.00000000
     atom   20 type  4   force =     0.00000000    0.00000000    0.00000000
     The SCF correction term to forces
     atom    1 type  1   force =     0.00023554    0.00073079    0.00005472
     atom    2 type  1   force =    -0.00066265    0.00049996   -0.00009751
     atom    3 type  2   force =     0.00043983    0.00021599    0.00000628
     atom    4 type  2   force =    -0.00046716    0.00043357   -0.00005440
     atom    5 type  2   force =    -0.00023533   -0.00024688   -0.00011343
     atom    6 type  2   force =    -0.00063929    0.00009353   -0.00012535
     atom    7 type  2   force =     0.00005436    0.00003309    0.00014115
     atom    8 type  2   force =     0.00001862   -0.00002244   -0.00001345
     atom    9 type  3   force =     0.00004639    0.00006261   -0.00001315
     atom   10 type  3   force =     0.00003536   -0.00000901   -0.00003227
     atom   11 type  3   force =    -0.00003920    0.00002008   -0.00001668
     atom   12 type  3   force =     0.00006360   -0.00013370   -0.00001349
     atom   13 type  3   force =    -0.00004506    0.00001847   -0.00000953
     atom   14 type  3   force =     0.00001119    0.00000309    0.00001670
     atom   15 type  3   force =    -0.00002020   -0.00000088    0.00001200
     atom   16 type  3   force =     0.00002438    0.00002551    0.00001189
     atom   17 type  3   force =    -0.00000403   -0.00011388   -0.00002084
     atom   18 type  3   force =     0.00007226    0.00004384   -0.00007706
     atom   19 type  3   force =     0.00004237    0.00001523    0.00010221
     atom   20 type  4   force =     0.00003313    0.00022863   -0.00008316

     Total force =     0.118097     Total SCF correction =     0.001632


     Computing stress (Cartesian axis) and pressure


     negative rho (up, down):  9.008E-04 0.000E+00
          total   stress  (Ry/bohr**3)                   (kbar)     P=        0.46
  -0.00000101   0.00000209  -0.00000049           -0.15        0.31       -0.07
   0.00000209   0.00000988   0.00000047            0.31        1.45        0.07
  -0.00000049   0.00000047   0.00000052           -0.07        0.07        0.08

     Energy error            =      3.2E-02 Ry
     Gradient error          =      4.5E-02 Ry/Bohr

     number of scf cycles    =   4
     number of bfgs steps    =   3

     energy             old  =    -259.3757460425 Ry
     energy             new  =    -259.4076899157 Ry

     CASE: energy            _new < energy            _old

     new trust radius        =       0.1136362904 bohr
     new conv_thr            =       0.0000004527 Ry


ATOMIC_POSITIONS (angstrom)
N             9.5788384406       10.0169350582        9.6226561632
N            11.6954869481        9.7195575835        9.9588090164
C             8.1532595597        9.6964321588        9.3625938990
C            10.5821305708        9.1172002195        9.5986085776
C            10.1142147602       11.2538114295        9.9408553549
C            11.4495837771       11.0774629619       10.1486993135
C             7.3832780854        9.3919430636       10.6430266656
C            12.9859893821        9.0289403289       10.0908958652
H             7.7404033167       10.5753082686        8.8454773456
H             8.1298460860        8.8398651665        8.6777956865
H            10.4582718716        8.0180686913        9.4213510025
H             9.4590143489       12.1173593234        9.9457988256
H            12.2863928033       11.7311547483       10.3751384887
H             7.8043430378        8.5075094732       11.1389044703
H             6.3344043266        9.1834966859       10.3868905297
H             7.4119703659       10.2467221350       11.3298781730
H            12.8480955639        7.9540331320        9.9085598071
H            13.6851040998        9.4450928118        9.3547110253
H            13.3721664637        9.1737136448       11.1102215649
Cl            9.7499561919        6.4127931153        9.8959782252



     Writing config-only to output data dir ./plusCL5.save/
     NEW-OLD atomic charge density approx. for the potential

     negative rho (up, down):  8.605E-04 0.000E+00

     total cpu time spent up to now is     2113.2 secs

     Self-consistent Calculation

     iteration #  1     ecut=    60.00 Ry     beta= 0.70
     Davidson diagonalization with overlap
     ethr =  1.00E-06,  avg # of iterations =  8.0

     negative rho (up, down):  8.732E-04 0.000E+00

     total cpu time spent up to now is     2171.3 secs

     total energy              =    -259.41720809 Ry
     estimated scf accuracy    <       0.00273655 Ry

     iteration #  2     ecut=    60.00 Ry     beta= 0.70
     Davidson diagonalization with overlap
     ethr =  5.26E-06,  avg # of iterations =  2.0

     negative rho (up, down):  8.888E-04 0.000E+00

     total cpu time spent up to now is     2220.4 secs

     total energy              =    -259.41769938 Ry
     estimated scf accuracy    <       0.00038983 Ry

     iteration #  3     ecut=    60.00 Ry     beta= 0.70
     Davidson diagonalization with overlap
     ethr =  7.50E-07,  avg # of iterations =  2.0

     negative rho (up, down):  8.943E-04 0.000E+00

     total cpu time spent up to now is     2269.5 secs

     total energy              =    -259.41777292 Ry
     estimated scf accuracy    <       0.00010145 Ry

     iteration #  4     ecut=    60.00 Ry     beta= 0.70
     Davidson diagonalization with overlap
     ethr =  1.95E-07,  avg # of iterations =  2.0

     negative rho (up, down):  8.947E-04 0.000E+00

     total cpu time spent up to now is     2318.8 secs

     total energy              =    -259.41779864 Ry
     estimated scf accuracy    <       0.00003241 Ry

     iteration #  5     ecut=    60.00 Ry     beta= 0.70
     Davidson diagonalization with overlap
     ethr =  6.23E-08,  avg # of iterations =  2.0

     negative rho (up, down):  8.949E-04 0.000E+00

     total cpu time spent up to now is     2366.9 secs

     total energy              =    -259.41780479 Ry
     estimated scf accuracy    <       0.00000136 Ry

     iteration #  6     ecut=    60.00 Ry     beta= 0.70
     Davidson diagonalization with overlap
     ethr =  2.61E-09,  avg # of iterations =  3.0

     negative rho (up, down):  8.953E-04 0.000E+00

     total cpu time spent up to now is     2415.3 secs

     End of self-consistent calculation

          k = 0.0000 0.0000 0.0000 (423701 PWs)   bands (ev):

   -27.1603 -24.1277 -20.4196 -19.4568 -18.5289 -16.6833 -16.4711 -15.9584
   -15.0116 -13.9478 -12.7210 -12.2785 -11.9103 -11.7793 -11.1385 -11.0996
   -10.8389 -10.3906  -9.8606  -9.3386  -8.7755  -7.7959  -6.9312  -4.5116
    -4.4746  -4.3482  -1.4155  -1.3587  -0.8268  -0.5484  -0.1996

     the Fermi energy is    -3.0478 ev

!    total energy              =    -259.41780522 Ry
     total all-electron energy =     -1612.268523 Ry
     estimated scf accuracy    <       0.00000019 Ry
     smearing contrib. (-TS)   =       0.00000000 Ry
[...]
C             7.4145094443        9.4010823616       10.6337153576
C            12.9885523666        9.0508335429       10.0754503883
H             7.7287754556       10.5650166518        8.8044374317
H             8.1577044681        8.8343799453        8.6856639440
H            10.3693159686        7.9763744607        9.5141130594
H             9.5046960999       12.1584193571       10.0055883078
H            12.2304059097       11.7775777627       10.4284258751
H             7.8431285518        8.5070610864       11.1065158629
H             6.3641894297        9.1867206847       10.3943975472
H             7.4399838356       10.2465794721       11.3354841608
H            12.8248721448        7.9818001129        9.9033619925
H            13.7133672600        9.4388347813        9.3484871089
H            13.3682933453        9.1976251319       11.0941254098
Cl            9.6925096287        6.2508457508        9.9041098057



     Writing config-only to output data dir ./plusCL5.save/
     NEW-OLD atomic charge density approx. for the potential

     negative rho (up, down):  8.937E-04 0.000E+00

     total cpu time spent up to now is     9264.1 secs

     Self-consistent Calculation

     iteration #  1     ecut=    60.00 Ry     beta= 0.70
     Davidson diagonalization with overlap
     ethr =  1.00E-06,  avg # of iterations =  3.0

     Threshold (ethr) on eigenvalues was too large:
     Diagonalizing with lowered threshold

     Davidson diagonalization with overlap
     ethr =  9.31E-09,  avg # of iterations =  4.0

     negative rho (up, down):  8.935E-04 0.000E+00

     total cpu time spent up to now is     9306.4 secs

     total energy              =    -259.42932173 Ry
     estimated scf accuracy    <       0.00000681 Ry

     iteration #  2     ecut=    60.00 Ry     beta= 0.70
     Davidson diagonalization with overlap
     ethr =  1.31E-08,  avg # of iterations =  2.0

     negative rho (up, down):  8.935E-04 0.000E+00

     total cpu time spent up to now is     9332.2 secs

     total energy              =    -259.42932278 Ry
     estimated scf accuracy    <       0.00000100 Ry

     iteration #  3     ecut=    60.00 Ry     beta= 0.70
     Davidson diagonalization with overlap
     ethr =  1.93E-09,  avg # of iterations =  3.0

     negative rho (up, down):  8.935E-04 0.000E+00

     total cpu time spent up to now is     9358.3 secs

     total energy              =    -259.42932300 Ry
     estimated scf accuracy    <       0.00000016 Ry

     iteration #  4     ecut=    60.00 Ry     beta= 0.70
     Davidson diagonalization with overlap
     ethr =  3.14E-10,  avg # of iterations =  3.0

     negative rho (up, down):  8.935E-04 0.000E+00

     total cpu time spent up to now is     9384.0 secs

     total energy              =    -259.42932304 Ry
     estimated scf accuracy    <       0.00000003 Ry

     iteration #  5     ecut=    60.00 Ry     beta= 0.70
     Davidson diagonalization with overlap
     ethr =  5.97E-11,  avg # of iterations =  2.0

     negative rho (up, down):  8.935E-04 0.000E+00

     total cpu time spent up to now is     9409.3 secs

     End of self-consistent calculation

          k = 0.0000 0.0000 0.0000 (423701 PWs)   bands (ev):

   -27.1621 -24.2217 -20.5119 -19.5116 -18.5633 -16.7434 -16.3154 -15.9768
   -15.1663 -14.0065 -12.7545 -12.3666 -12.0232 -11.8146 -11.2357 -11.0818
   -10.9174 -10.4258  -9.8936  -9.3590  -8.8327  -7.8621  -6.9952  -4.4760
    -4.3929  -4.3573  -1.6694  -1.4342  -0.8722  -0.5699  -0.2428

     the Fermi energy is    -3.0838 ev

!    total energy              =    -259.42932304 Ry
     total all-electron energy =     -1612.280041 Ry
     estimated scf accuracy    <          2.6E-09 Ry
     smearing contrib. (-TS)   =       0.00000000 Ry
     internal energy E=F+TS    =    -259.42932304 Ry

     The total energy is F=E-TS. E is the sum of the following terms:
     one-electron contribution =    -806.68754533 Ry
     hartree contribution      =     409.25059554 Ry
     xc contribution           =     -57.86384758 Ry
     ewald contribution        =     294.25140868 Ry
     one-center paw contrib.   =     -98.37993435 Ry

     convergence has been achieved in   5 iterations

     negative rho (up, down):  8.935E-04 0.000E+00

     Forces acting on atoms (cartesian axes, Ry/au):

     atom    1 type  1   force =     0.00041423   -0.00018489    0.00045217
     atom    2 type  1   force =    -0.00061771   -0.00000686    0.00065397
     atom    3 type  2   force =     0.00054583   -0.00032883    0.00005357
     atom    4 type  2   force =    -0.00011998    0.00000921    0.00042886
     atom    5 type  2   force =     0.00006864   -0.00015951   -0.00016902
     atom    6 type  2   force =    -0.00028086   -0.00020987    0.00009680
     atom    7 type  2   force =     0.00030344    0.00021472   -0.00047195
     atom    8 type  2   force =    -0.00038281   -0.00002488    0.00009932
     atom    9 type  3   force =     0.00003045   -0.00053422    0.00013813
     atom   10 type  3   force =    -0.00023790    0.00033117   -0.00008111
     atom   11 type  3   force =    -0.00014516   -0.00030136   -0.00075851
     atom   12 type  3   force =     0.00030046    0.00051925   -0.00032277
     atom   13 type  3   force =    -0.00059664    0.00041220    0.00004059
     atom   14 type  3   force =     0.00036932    0.00041184    0.00000343
     atom   15 type  3   force =     0.00032251    0.00023296    0.00013434
     atom   16 type  3   force =     0.00036525   -0.00062068   -0.00005580
     atom   17 type  3   force =    -0.00003408    0.00001879    0.00002946
     atom   18 type  3   force =    -0.00051687   -0.00018887    0.00060590
     atom   19 type  3   force =     0.00049928    0.00018209   -0.00081425
     atom   20 type  4   force =    -0.00028737    0.00022775   -0.00006313
     The non-local contrib.  to forces
     atom    1 type  1   force =     0.23052993    0.02894065    0.08517505
     atom    2 type  1   force =    -0.12743481    0.05452753   -0.01010365
     atom    3 type  2   force =     0.42989050    0.15501320    0.11553735
     atom    4 type  2   force =     0.08437246    0.72570415    0.17583359
     atom    5 type  2   force =    -0.15862917   -0.29029857   -0.09876584
     atom    6 type  2   force =     0.10469694   -0.33497895   -0.05959112
     atom    7 type  2   force =     0.02168656    0.09013950   -0.11567949
     atom    8 type  2   force =    -0.37040991    0.25708099   -0.04036593
     atom    9 type  3   force =     0.03154804   -0.05767602    0.03802165
     atom   10 type  3   force =     0.00161915    0.06355502    0.04624494
     atom   11 type  3   force =     0.01096739    0.06246930    0.00358381
     atom   12 type  3   force =     0.04450092   -0.06690158   -0.00530201
     atom   13 type  3   force =    -0.05710919   -0.05260901   -0.02074634
     atom   14 type  3   force =    -0.02915860    0.06283085   -0.03235685
     atom   15 type  3   force =     0.07093803    0.01535440    0.01491760
     atom   16 type  3   force =    -0.00092916   -0.05561199   -0.04802000
     atom   17 type  3   force =     0.01079526    0.07721079    0.01178330
     atom   18 type  3   force =    -0.05114933   -0.02570358    0.05043552
     atom   19 type  3   force =    -0.02718511   -0.00877397   -0.07101241
     atom   20 type  4   force =     0.01682503    0.05877767   -0.01053526
     The ionic contribution  to forces
     atom    1 type  1   force =    -4.96800747    1.93153610   -2.83341575
     atom    2 type  1   force =     7.77950874   -0.73175067    0.41627631
     atom    3 type  2   force =    -6.89638465    0.19428344   -4.19618601
     atom    4 type  2   force =     0.57480886   -7.80093525   -3.09350051
     atom    5 type  2   force =    -2.20766306   10.55725882    1.00993953
     atom    6 type  2   force =     5.70478026    9.07081146    2.47210639
     atom    7 type  2   force =    -6.29609576   -0.78286557    4.11791783
     atom    8 type  2   force =     8.47591373   -3.08565465    0.81000232
     atom    9 type  3   force =    -2.19005724    2.28510378   -2.07610448
     atom   10 type  3   force =    -1.25435326   -2.19152555   -2.55082476
     atom   11 type  3   force =     0.10281313   -2.54067120   -0.65239606
     atom   12 type  3   force =    -1.55591994    3.52318028    0.27177679
     atom   13 type  3   force =     2.46356932    2.80854321    0.94553651
     atom   14 type  3   force =    -0.31847832   -2.27821560    1.99952859
     atom   15 type  3   force =    -3.39212658   -0.58893873   -0.08216833
     atom   16 type  3   force =    -1.13205493    1.95461436    2.43530717
     atom   17 type  3   force =     1.11839267   -3.10998711   -0.31031918
     atom   18 type  3   force =     2.98448118    0.56651709   -1.79808322
     atom   19 type  3   force =     2.15997500   -0.06335433    2.76723640
     atom   20 type  4   force =    -1.15310167   -9.71794987    0.34737046
     The local contribution  to forces
     atom    1 type  1   force =     4.73863261   -1.95958847    2.74945617
     atom    2 type  1   force =    -7.65163899    0.67776154   -0.40524611
     atom    3 type  2   force =     6.47513118   -0.34676486    4.08402440
     atom    4 type  2   force =    -0.65820543    7.08295196    2.91966335
     atom    5 type  2   force =     2.36099791  -10.26966308   -0.91303231
     atom    6 type  2   force =    -5.80492629   -8.74020355   -2.41255523
     atom    7 type  2   force =     6.27543211    0.69465846   -4.00508855
     atom    8 type  2   force =    -8.11300651    2.83356576   -0.77036360
     atom    9 type  3   force =     2.15854156   -2.22796017    2.03822186
     atom   10 type  3   force =     1.25249587    2.12829960    2.50449858
     atom   11 type  3   force =    -0.11392826    2.47789600    0.64805383
     atom   12 type  3   force =     1.51172436   -3.45576855   -0.26679772
     atom   13 type  3   force =    -2.40706207   -2.75552415   -0.92474959
     atom   14 type  3   force =     0.34800636    2.21579641   -1.96716685
     atom   15 type  3   force =     3.32151123    0.57381554    0.06738664
     atom   16 type  3   force =     1.13335188   -1.89962414   -2.38734225
     atom   17 type  3   force =    -1.12921929    3.03279067    0.29856674
     atom   18 type  3   force =    -2.93384550   -0.54100288    1.74825297
     atom   19 type  3   force =    -2.13228873    0.07230941   -2.69703478
     atom   20 type  4   force =     1.13620325    9.66044542   -0.33707471
     The core correction contribution to forces
     atom    1 type  1   force =    -0.00075093   -0.00100579   -0.00074829
     atom    2 type  1   force =    -0.00105239   -0.00049455   -0.00026139
     atom    3 type  2   force =    -0.00807895   -0.00284799   -0.00331593
     atom    4 type  2   force =    -0.00111876   -0.00768363   -0.00156165
     atom    5 type  2   force =     0.00535883    0.00254628    0.00168912
     atom    6 type  2   force =    -0.00486497    0.00418249    0.00013766
     atom    7 type  2   force =    -0.00071184   -0.00171636    0.00238774
     atom    8 type  2   force =     0.00713144   -0.00501633    0.00083371
     atom    9 type  3   force =     0.00000000    0.00000000    0.00000000
     atom   10 type  3   force =     0.00000000    0.00000000    0.00000000
     atom   11 type  3   force =     0.00000000    0.00000000    0.00000000
     atom   12 type  3   force =     0.00000000    0.00000000    0.00000000
     atom   13 type  3   force =     0.00000000    0.00000000    0.00000000
     atom   14 type  3   force =     0.00000000    0.00000000    0.00000000
     atom   15 type  3   force =     0.00000000    0.00000000    0.00000000
     atom   16 type  3   force =     0.00000000    0.00000000    0.00000000
     atom   17 type  3   force =     0.00000000    0.00000000    0.00000000
     atom   18 type  3   force =     0.00000000    0.00000000    0.00000000
     atom   19 type  3   force =     0.00000000    0.00000000    0.00000000
     atom   20 type  4   force =    -0.00022880   -0.00105853    0.00017060
     The Hubbard contrib.    to forces
     atom    1 type  1   force =     0.00000000    0.00000000    0.00000000
     atom    2 type  1   force =     0.00000000    0.00000000    0.00000000
     atom    3 type  2   force =     0.00000000    0.00000000    0.00000000
     atom    4 type  2   force =     0.00000000    0.00000000    0.00000000
     atom    5 type  2   force =     0.00000000    0.00000000    0.00000000
     atom    6 type  2   force =     0.00000000    0.00000000    0.00000000
     atom    7 type  2   force =     0.00000000    0.00000000    0.00000000
     atom    8 type  2   force =     0.00000000    0.00000000    0.00000000
     atom    9 type  3   force =     0.00000000    0.00000000    0.00000000
     atom   10 type  3   force =     0.00000000    0.00000000    0.00000000
     atom   11 type  3   force =     0.00000000    0.00000000    0.00000000
     atom   12 type  3   force =     0.00000000    0.00000000    0.00000000
     atom   13 type  3   force =     0.00000000    0.00000000    0.00000000
     atom   14 type  3   force =     0.00000000    0.00000000    0.00000000
     atom   15 type  3   force =     0.00000000    0.00000000    0.00000000
     atom   16 type  3   force =     0.00000000    0.00000000    0.00000000
     atom   17 type  3   force =     0.00000000    0.00000000    0.00000000
     atom   18 type  3   force =     0.00000000    0.00000000    0.00000000
     atom   19 type  3   force =     0.00000000    0.00000000    0.00000000
     atom   20 type  4   force =     0.00000000    0.00000000    0.00000000
     The SCF correction term to forces
     atom    1 type  1   force =     0.00001033   -0.00006928   -0.00001418
     atom    2 type  1   force =    -0.00000002   -0.00005261   -0.00001035
     atom    3 type  2   force =    -0.00001201   -0.00001451   -0.00000542
     atom    4 type  2   force =     0.00002312   -0.00002991   -0.00000510
     atom    5 type  2   force =     0.00000438   -0.00000485    0.00000130
     atom    6 type  2   force =     0.00003344   -0.00002322   -0.00000007
     atom    7 type  2   force =    -0.00000739   -0.00000320   -0.00000864
     atom    8 type  2   force =    -0.00001132   -0.00000255   -0.00000636
     atom    9 type  3   force =    -0.00000167   -0.00000370   -0.00000007
     atom   10 type  3   force =     0.00000058    0.00000021    0.00000096
     atom   11 type  3   force =     0.00000282    0.00000266    0.00000074
     atom   12 type  3   force =    -0.00000464    0.00000721    0.00000101
     atom   13 type  3   force =     0.00000554    0.00000024    0.00000083
     atom   14 type  3   force =     0.00000012   -0.00000171   -0.00000063
     atom   15 type  3   force =     0.00000006   -0.00000015   -0.00000074
     atom   16 type  3   force =    -0.00000231   -0.00000080    0.00000010
     atom   17 type  3   force =    -0.00000248    0.00000254   -0.00000058
     atom   18 type  3   force =    -0.00000297   -0.00000140    0.00000145
     atom   19 type  3   force =    -0.00000164   -0.00000090   -0.00000262
     atom   20 type  4   force =     0.00001506    0.00001117    0.00000660

     Total force =     0.002730     Total SCF correction =     0.000111


     Computing stress (Cartesian axis) and pressure


     negative rho (up, down):  8.935E-04 0.000E+00
          total   stress  (Ry/bohr**3)                   (kbar)     P=       -0.05
  -0.00000047   0.00000003   0.00000006           -0.07        0.00        0.01
   0.00000003  -0.00000030   0.00000003            0.00       -0.04        0.00
   0.00000006   0.00000003  -0.00000022            0.01        0.00       -0.03

     Energy error            =      1.1E-05 Ry
     Gradient error          =      8.1E-04 Ry/Bohr

     bfgs converged in  22 scf cycles and  21 bfgs steps
     (criteria: energy <  1.0E-04 Ry, force <  1.0E-03 Ry/Bohr)

     End of BFGS Geometry Optimization

     Final energy             =    -259.4293230423 Ry

     File ./plusCL5.bfgs deleted, as requested
Begin final coordinates

ATOMIC_POSITIONS (angstrom)
N             9.5852149708       10.0339861726        9.5850909825
N            11.7050862231        9.7337334264        9.9262276855
C             8.1646843736        9.7125178543        9.3435303740
C            10.5632120436        9.1088678210        9.5797161489
C            10.1135085699       11.2655256587        9.9388099151
C            11.4507399101       11.0796179645       10.1495986424
C             7.4145094443        9.4010823616       10.6337153576
C            12.9885523666        9.0508335429       10.0754503883
H             7.7287754556       10.5650166518        8.8044374317
H             8.1577044681        8.8343799453        8.6856639440
H            10.3693159686        7.9763744607        9.5141130594
H             9.5046960999       12.1584193571       10.0055883078
H            12.2304059097       11.7775777627       10.4284258751
H             7.8431285518        8.5070610864       11.1065158629
H             6.3641894297        9.1867206847       10.3943975472
H             7.4399838356       10.2465794721       11.3354841608
H            12.8248721448        7.9818001129        9.9033619925
H            13.7133672600        9.4388347813        9.3484871089
H            13.3682933453        9.1976251319       11.0941254098
Cl            9.6925096287        6.2508457508        9.9041098057
End final coordinates



     Writing all to output data dir ./plusCL5.save/

     init_run     :     47.04s CPU     48.91s WALL (       1 calls)
     electrons    :   5999.47s CPU   6399.57s WALL (      22 calls)
     update_pot   :    180.32s CPU    183.13s WALL (      21 calls)
     forces       :    574.89s CPU    604.16s WALL (      22 calls)
     stress       :   1852.25s CPU   1925.35s WALL (      22 calls)

     Called by init_run:
     wfcinit      :      3.20s CPU      3.30s WALL (       1 calls)
     potinit      :      5.57s CPU      5.90s WALL (       1 calls)
     hinit0       :      3.86s CPU      4.00s WALL (       1 calls)

     Called by electrons:
     c_bands      :    866.15s CPU    875.93s WALL (     139 calls)
     sum_band     :   2914.09s CPU   3111.80s WALL (     139 calls)
     v_of_rho     :    471.73s CPU    488.39s WALL (     152 calls)
     newd         :   1920.74s CPU   2073.49s WALL (     152 calls)
     PAW_pot      :     39.28s CPU     39.96s WALL (     173 calls)
     mix_rho      :     75.74s CPU     76.33s WALL (     139 calls)

     Called by c_bands:
     init_us_2    :      9.51s CPU      9.64s WALL (     300 calls)
     init_us_2:cp :      9.50s CPU      9.64s WALL (     300 calls)
     cegterg      :    849.65s CPU    859.21s WALL (     139 calls)

     Called by *egterg:
     cdiaghg      :      0.88s CPU      1.06s WALL (     547 calls)
     h_psi        :    739.50s CPU    747.77s WALL (     578 calls)
     s_psi        :     23.70s CPU     23.87s WALL (     578 calls)
     g_psi        :      3.09s CPU      3.11s WALL (     438 calls)

     Called by h_psi:
     h_psi:calbec :     20.39s CPU     20.55s WALL (     578 calls)
     vloc_psi     :    690.09s CPU    698.00s WALL (     578 calls)
     add_vuspsi   :     23.58s CPU     23.73s WALL (     578 calls)

     General routines
     calbec       :     31.05s CPU     31.33s WALL (     848 calls)
     fft          :    545.02s CPU    554.17s WALL (    2512 calls)
     ffts         :     14.78s CPU     14.94s WALL (     291 calls)
     fftw         :    491.48s CPU    497.64s WALL (   29439 calls)
     interpolate  :     42.30s CPU     42.69s WALL (     152 calls)

     Parallel routines

     PWSCF        :      2h29m CPU      2h38m WALL


   This run was terminated on:  13:36:44  18Jun2025            

=------------------------------------------------------------------------------=
   JOB DONE.
=------------------------------------------------------------------------------=
