
     Program PWSCF v.7.2 starts on 18Jun2025 at 10:58:38 

     This program is part of the open-source Quantum ESPRESSO suite
     for quantum simulation of materials; please cite
         "P. Giannozzi et al., J. Phys.:Condens. Matter 21 395502 (2009);
         "P. Giannozzi et al., J. Phys.:Condens. Matter 29 465901 (2017);
         "P. Giannozzi et al., J. Chem. Phys. 152 154105 (2020);
          URL http://www.quantum-espresso.org", 
     in publications or presentations arising from this work. More details at
     http://www.quantum-espresso.org/quote

     Parallel version (MPI), running on    20 processors

     MPI processes distributed on     1 nodes
     250006 MiB available memory on the printing compute node when the environment starts

     Reading input from pw2.in
Warning: card &CELL ignored
Warning: card / ignored
Warning: card &FCP ignored
Warning: card / ignored
Warning: card &RISM ignored
Warning: card / ignored

     Current dimensions of program PWSCF are:
     Max number of different atomic species (ntypx) = 10
     Max number of k-points (npk) =  40000
     Max angular momentum in pseudopotentials (lmaxx) =  4
     file N.pbe-n-kjpaw_psl.1.0.0.UPF: wavefunction(s)  2S renormalized
     file C.pbe-n-kjpaw_psl.1.0.0.UPF: wavefunction(s)  2S 2P renormalized
     file H.pbe-kjpaw_psl.1.0.0.UPF: wavefunction(s)  1S renormalized
     file Cl.pbe-n-kjpaw_psl.1.0.0.UPF: wavefunction(s)  3S 3P renormalized

     R & G space division:  proc/nbgrp/npool/nimage =      20
     Subspace diagonalization in iterative solution of the eigenvalue problem:
     a serial algorithm will be used


     Parallelization info
     --------------------
     sticks:   dense  smooth     PW     G-vecs:    dense   smooth      PW
     Min        3411    1364    340               669939   169462   21182
     Max        3413    1365    341               669940   169465   21187
     Sum       68237   27281   6817             13398795  3389267  423701

     Using Slab Decomposition



     bravais-lattice index     =            0
     lattice parameter (alat)  =      37.7945  a.u.
     unit-cell volume          =   53986.6760 (a.u.)^3
     number of atoms/cell      =           20
     number of atomic types    =            4
     number of electrons       =        52.00
     number of Kohn-Sham states=           31
     kinetic-energy cutoff     =      60.0000  Ry
     charge density cutoff     =     600.0000  Ry
     scf convergence threshold =      1.0E-06
     mixing beta               =       0.7000
     number of iterations used =            8  plain     mixing
     energy convergence thresh.=      1.0E-04
     force convergence thresh. =      1.0E-03
     Exchange-correlation= SLA  PW   PBX  PBC
                           (   1   4   3   4   0   0   0)
     nstep                     =           50


     celldm(1)=  37.794522  celldm(2)=   0.000000  celldm(3)=   0.000000
     celldm(4)=   0.000000  celldm(5)=   0.000000  celldm(6)=   0.000000

     crystal axes: (cart. coord. in units of alat)
               a(1) = (   1.000000   0.000000   0.000000 )  
               a(2) = (   0.000000   1.000000   0.000000 )  
               a(3) = (   0.000000   0.000000   1.000000 )  

     reciprocal axes: (cart. coord. in units 2 pi/alat)
               b(1) = (  1.000000  0.000000  0.000000 )  
               b(2) = (  0.000000  1.000000  0.000000 )  
               b(3) = (  0.000000  0.000000  1.000000 )  


     PseudoPot. # 1 for N  read from file:
     /home/ebarquero/practicas/pseudo/N.pbe-n-kjpaw_psl.1.0.0.UPF
     MD5 check sum: 14c48229446f9f2d411169a3abcbc3fa
     Pseudo is Projector augmented-wave + core cor, Zval =  5.0
     Generated using &quot;atomic&quot; code by A. Dal Corso  v.6.3
     Shape of augmentation charge: PSQ
     Using radial grid of 1085 points,  4 beta functions with: 
                l(1) =   0
                l(2) =   0
                l(3) =   1
                l(4) =   1
     Q(r) pseudized with 0 coefficients 


     PseudoPot. # 2 for C  read from file:
     /home/ebarquero/practicas/pseudo/C.pbe-n-kjpaw_psl.1.0.0.UPF
     MD5 check sum: 5f16ad9a65e90284d1d834d4ab3b0f7d
     Pseudo is Projector augmented-wave + core cor, Zval =  4.0
     Generated using &quot;atomic&quot; code by A. Dal Corso  v.6.3
     Shape of augmentation charge: PSQ
     Using radial grid of 1073 points,  4 beta functions with: 
                l(1) =   0
                l(2) =   0
                l(3) =   1
                l(4) =   1
     Q(r) pseudized with 0 coefficients 


     PseudoPot. # 3 for H  read from file:
     /home/ebarquero/practicas/pseudo/H.pbe-kjpaw_psl.1.0.0.UPF
     MD5 check sum: d81a744832360e4a8af0b0b5b123bc2a
     Pseudo is Projector augmented-wave, Zval =  1.0
     Generated using &quot;atomic&quot; code by A. Dal Corso  v.6.3MaX
     Shape of augmentation charge: PSQ
     Using radial grid of  929 points,  2 beta functions with: 
                l(1) =   0
                l(2) =   0
     Q(r) pseudized with 0 coefficients 


     PseudoPot. # 4 for Cl read from file:
     /home/ebarquero/practicas/pseudo/Cl.pbe-n-kjpaw_psl.1.0.0.UPF
     MD5 check sum: 530da96d25dcb7781b0586ca00827062
     Pseudo is Projector augmented-wave + core cor, Zval =  7.0
     Generated using &quot;atomic&quot; code by A. Dal Corso  v.6.3
     Shape of augmentation charge: PSQ
     Using radial grid of 1157 points,  6 beta functions with: 
                l(1) =   0
                l(2) =   0
                l(3) =   1
                l(4) =   1
                l(5) =   2
                l(6) =   2
     Q(r) pseudized with 0 coefficients 


     atomic species   valence    mass     pseudopotential
        N              5.00    14.00700     N ( 1.00)
        C              4.00    12.01100     C ( 1.00)
        H              1.00     1.00800     H ( 1.00)
        Cl             7.00    35.45000     Cl( 1.00)

     No symmetry found



   Cartesian axes

     site n.     atom                  positions (alat units)
         1           N   tau(   1) = (   0.4784350   0.4983700   0.4822825  )
         2           N   tau(   2) = (   0.5840800   0.4834250   0.4981975  )
         3           C   tau(   3) = (   0.4086850   0.4849100   0.4683775  )
         4           C   tau(   4) = (   0.5267500   0.4522000   0.4838175  )
         5           C   tau(   5) = (   0.5053200   0.5601200   0.4958775  )
         6           C   tau(   6) = (   0.5722200   0.5506600   0.5059525  )
         7           C   tau(   7) = (   0.3692350   0.4695750   0.5314475  )
         8           C   tau(   8) = (   0.6484800   0.4509850   0.5045475  )
         9           H   tau(   9) = (   0.3870500   0.5281950   0.4426725  )
        10           H   tau(  10) = (   0.4058600   0.4424850   0.4338175  )
        11           H   tau(  11) = (   0.5205200   0.3993350   0.4751075  )
        12           H   tau(  12) = (   0.4726500   0.6026750   0.4965575  )
        13           H   tau(  13) = (   0.6136500   0.5826400   0.5177475  )
        14           H   tau(  14) = (   0.3900550   0.4260000   0.5572075  )
        15           H   tau(  15) = (   0.3169150   0.4591950   0.5193225  )
        16           H   tau(  16) = (   0.3709150   0.5118400   0.5661825  )
        17           H   tau(  17) = (   0.6434600   0.3973250   0.4954175  )
        18           H   tau(  18) = (   0.6830850   0.4722900   0.4679675  )
        19           H   tau(  19) = (   0.6677300   0.4589100   0.5551025  )
        20           Cl  tau(  20) = (   0.5136500   0.2891350   0.4902400  )

     number of k points=     1  Methfessel-Paxton smearing, width (Ry)=  0.0200
                       cart. coord. in units 2pi/alat
        k(    1) = (   0.0000000   0.0000000   0.0000000), wk =   2.0000000

     Dense  grid: 13398795 G-vectors     FFT dimensions: ( 300, 300, 300)

     Smooth grid:  3389267 G-vectors     FFT dimensions: ( 192, 192, 192)

     Estimated max dynamical RAM per process >       2.64 GB

     Estimated total dynamical RAM >      52.81 GB

     Initial potential from superposition of free atoms

     starting charge      51.9996, renormalised to      52.0000

     negative rho (up, down):  5.030E-04 0.000E+00
     Starting wfcs are   47 randomized atomic wfcs
     Checking if some PAW data can be deallocated... 

     total cpu time spent up to now is       49.4 secs

     Self-consistent Calculation

     iteration #  1     ecut=    60.00 Ry     beta= 0.70
     Davidson diagonalization with overlap
     ethr =  1.00E-02,  avg # of iterations =  4.0

     negative rho (up, down):  7.143E-04 0.000E+00

     total cpu time spent up to now is      100.1 secs

     total energy              =    -258.98344217 Ry
     estimated scf accuracy    <       1.85891789 Ry

     iteration #  2     ecut=    60.00 Ry     beta= 0.70
     Davidson diagonalization with overlap
     ethr =  3.57E-03,  avg # of iterations =  4.0

     negative rho (up, down):  8.360E-04 0.000E+00

     total cpu time spent up to now is      150.8 secs

     total energy              =    -259.33073115 Ry
     estimated scf accuracy    <       0.38638027 Ry

     iteration #  3     ecut=    60.00 Ry     beta= 0.70
     Davidson diagonalization with overlap
     ethr =  7.43E-04,  avg # of iterations =  6.0

     negative rho (up, down):  8.518E-04 0.000E+00

     total cpu time spent up to now is      200.9 secs

     total energy              =    -259.40242567 Ry
     estimated scf accuracy    <       0.03218456 Ry

     iteration #  4     ecut=    60.00 Ry     beta= 0.70
     Davidson diagonalization with overlap
     ethr =  6.19E-05,  avg # of iterations =  7.0

     negative rho (up, down):  8.744E-04 0.000E+00

     total cpu time spent up to now is      252.6 secs

     total energy              =    -259.40947154 Ry
     estimated scf accuracy    <       0.01266767 Ry

     iteration #  5     ecut=    60.00 Ry     beta= 0.70
     Davidson diagonalization with overlap
     ethr =  2.44E-05,  avg # of iterations =  6.0

     negative rho (up, down):  8.765E-04 0.000E+00

     total cpu time spent up to now is      302.1 secs

     total energy              =    -259.41179726 Ry
     estimated scf accuracy    <       0.00079237 Ry

     iteration #  6     ecut=    60.00 Ry     beta= 0.70
     Davidson diagonalization with overlap
     ethr =  1.52E-06,  avg # of iterations = 14.0

     negative rho (up, down):  8.803E-04 0.000E+00

     total cpu time spent up to now is      354.9 secs

     total energy              =    -259.41202085 Ry
     estimated scf accuracy    <       0.00008261 Ry

     iteration #  7     ecut=    60.00 Ry     beta= 0.70
     Davidson diagonalization with overlap
     ethr =  1.59E-07,  avg # of iterations =  2.0

     negative rho (up, down):  8.817E-04 0.000E+00

     total cpu time spent up to now is      403.7 secs

     total energy              =    -259.41204048 Ry
     estimated scf accuracy    <       0.00002288 Ry

     iteration #  8     ecut=    60.00 Ry     beta= 0.70
     Davidson diagonalization with overlap
     ethr =  4.40E-08,  avg # of iterations =  2.0

     negative rho (up, down):  8.826E-04 0.000E+00

     total cpu time spent up to now is      452.1 secs

     total energy              =    -259.41204499 Ry
     estimated scf accuracy    <       0.00000392 Ry

     iteration #  9     ecut=    60.00 Ry     beta= 0.70
     Davidson diagonalization with overlap
     ethr =  7.53E-09,  avg # of iterations =  2.0

     negative rho (up, down):  8.828E-04 0.000E+00

     total cpu time spent up to now is      500.3 secs

     End of self-consistent calculation

          k = 0.0000 0.0000 0.0000 (423701 PWs)   bands (ev):

   -27.8043 -24.8427 -20.9752 -20.0655 -18.9432 -17.2510 -16.5407 -15.7568
   -15.4087 -14.4935 -13.2315 -12.7519 -12.4980 -12.2803 -11.7197 -11.6564
   -11.3694 -10.5668 -10.2676  -9.8269  -9.1920  -8.2419  -7.3670  -3.9597
    -3.8264  -3.7996  -2.0131  -1.7499  -1.0178  -0.7122  -0.3181

     the Fermi energy is    -2.8967 ev

!    total energy              =    -259.41204576 Ry
     total all-electron energy =     -1612.262763 Ry
     estimated scf accuracy    <       0.00000020 Ry
     smearing contrib. (-TS)   =       0.00000607 Ry
     internal energy E=F+TS    =    -259.41205182 Ry

     The total energy is F=E-TS. E is the sum of the following terms:
     one-electron contribution =    -798.77377305 Ry
     hartree contribution      =     404.79602349 Ry
     xc contribution           =     -57.97095234 Ry
     ewald contribution        =     290.91696545 Ry
     one-center paw contrib.   =     -98.38031537 Ry

     convergence has been achieved in   9 iterations

     negative rho (up, down):  8.828E-04 0.000E+00

     Forces acting on atoms (cartesian axes, Ry/au):

     atom    1 type  1   force =     0.00748715    0.00063049   -0.00691088
     atom    2 type  1   force =    -0.00680859   -0.01036454   -0.00145401
     atom    3 type  2   force =    -0.03299128   -0.01252190   -0.00561351
     atom    4 type  2   force =     0.00218987    0.01745410   -0.00488630
     atom    5 type  2   force =     0.00387726    0.00392000    0.00364010
     atom    6 type  2   force =    -0.00132780    0.00507952    0.00209230
     atom    7 type  2   force =     0.00343458   -0.00060353    0.01031415
     atom    8 type  2   force =     0.01533023   -0.00625375    0.00062914
     atom    9 type  3   force =     0.00541459    0.00526396   -0.00298981
     atom   10 type  3   force =     0.00499817   -0.00256815   -0.00117316
     atom   11 type  3   force =    -0.00403118   -0.05674096    0.00035462
     atom   12 type  3   force =     0.00237526    0.01909771    0.00289036
     atom   13 type  3   force =     0.00201560    0.01953835    0.00308660
     atom   14 type  3   force =     0.00039451   -0.00615445   -0.00076950
     atom   15 type  3   force =    -0.00291108   -0.00058616   -0.00237234
     atom   16 type  3   force =    -0.00261432    0.00530224    0.00342054
     atom   17 type  3   force =    -0.00738778   -0.00403166    0.00022896
     atom   18 type  3   force =     0.00453316    0.00157203   -0.00170482
     atom   19 type  3   force =     0.00345388   -0.00036685    0.00332926
     atom   20 type  4   force =     0.00256779    0.02233356   -0.00211170
     The non-local contrib.  to forces
     atom    1 type  1   force =     0.21948009    0.01297269    0.03487201
     atom    2 type  1   force =    -0.17678282    0.04797145   -0.02119263
     atom    3 type  2   force =     0.40776466    0.11434696    0.11751383
     atom    4 type  2   force =     0.07184361    0.65031654    0.13040581
     atom    5 type  2   force =    -0.13969791   -0.31018786   -0.05980199
     atom    6 type  2   force =     0.06489175   -0.33981287   -0.03581898
     atom    7 type  2   force =     0.04253090    0.06758792   -0.09383021
     atom    8 type  2   force =    -0.38641448    0.27236348   -0.03436994
     atom    9 type  3   force =     0.03247089   -0.05899420    0.03671172
     atom   10 type  3   force =     0.00581411    0.06086401    0.04914411
     atom   11 type  3   force =     0.00969258    0.08347636    0.01279395
     atom   12 type  3   force =     0.05033545   -0.06589006   -0.00113603
     atom   13 type  3   force =    -0.06391697   -0.04956342   -0.01826394
     atom   14 type  3   force =    -0.02824504    0.06114953   -0.03636716
     atom   15 type  3   force =     0.07220821    0.01503288    0.01525716
     atom   16 type  3   force =    -0.00156650   -0.05653733   -0.04851318
     atom   17 type  3   force =     0.00594369    0.07874992    0.01271765
     atom   18 type  3   force =    -0.04975968   -0.02841081    0.05157645
     atom   19 type  3   force =    -0.02805690   -0.00951070   -0.07139855
     atom   20 type  4   force =     0.00772753    0.07077928   -0.00678576
     The ionic contribution  to forces
     atom    1 type  1   force =    -5.06095968    1.31360126   -2.19787834
     atom    2 type  1   force =     7.52500047   -0.97125809    0.67858824
     atom    3 type  2   force =    -6.92781003   -0.06486842   -4.26891610
     atom    4 type  2   force =    -0.02464890   -8.13859556   -1.99341866
     atom    5 type  2   force =    -1.99000311   10.76454477    0.66917570
     atom    6 type  2   force =     5.60296624    9.37369218    2.03493389
     atom    7 type  2   force =    -6.36539275   -1.04212215    3.92239099
     atom    8 type  2   force =     8.56171990   -3.01568861    0.79775038
     atom    9 type  3   force =    -2.18414233    2.33146071   -2.03821949
     atom   10 type  3   force =    -1.30335878   -2.20530866   -2.58516866
     atom   11 type  3   force =    -0.19137907   -3.03934884   -0.81001052
     atom   12 type  3   force =    -1.66025404    3.54075299    0.11167215
     atom   13 type  3   force =     2.61927541    2.79009062    0.81837391
     atom   14 type  3   force =    -0.29365356   -2.34562185    2.03238442
     atom   15 type  3   force =    -3.37858991   -0.60948333   -0.11992351
     atom   16 type  3   force =    -1.13428212    1.96440938    2.42690274
     atom   17 type  3   force =     1.24164001   -3.03190280   -0.34295989
     atom   18 type  3   force =     2.97309252    0.68263131   -1.84847608
     atom   19 type  3   force =     2.19469677   -0.00928684    2.78898452
     atom   20 type  4   force =    -0.20391704   -8.28769807   -0.07618568
     The local contribution  to forces
     atom    1 type  1   force =     4.84992994   -1.32544502    2.15601172
     atom    2 type  1   force =    -7.35464047    0.91295830   -0.65887144
     atom    3 type  2   force =     6.49466725   -0.06005774    4.14878684
     atom    4 type  2   force =    -0.04427171    7.51264964    1.85964250
     atom    5 type  2   force =     2.12915818  -10.45293727   -0.60677733
     atom    6 type  2   force =    -5.66542404   -9.03242830   -1.99691875
     atom    7 type  2   force =     6.32714711    0.97507505   -3.82032899
     atom    8 type  2   force =    -8.16735240    2.74203100   -0.76348324
     atom    9 type  3   force =     2.15707056   -2.26714948    1.99846981
     atom   10 type  3   force =     1.30254847    2.14185634    2.53480182
     atom   11 type  3   force =     0.17766257    2.89919349    0.79755578
     atom   12 type  3   force =     1.61229044   -3.45574439   -0.10765947
     atom   13 type  3   force =    -2.55334565   -2.72098140   -0.79703265
     atom   14 type  3   force =     0.32229039    2.27828262   -1.99675050
     atom   15 type  3   force =     3.30340768    0.59385752    0.10229644
     atom   16 type  3   force =     1.13321252   -1.90252450   -2.37491617
     atom   17 type  3   force =    -1.25497383    2.94920775    0.33047426
     atom   18 type  3   force =    -2.91885390   -0.65266225    1.79523968
     atom   19 type  3   force =    -2.16321097    0.01843532   -2.71432638
     atom   20 type  4   force =     0.19912650    8.24219533    0.08047750
     The core correction contribution to forces
     atom    1 type  1   force =    -0.00058750   -0.00054624   -0.00009402
     atom    2 type  1   force =    -0.00026816   -0.00018007   -0.00012262
     atom    3 type  2   force =    -0.00750282   -0.00191985   -0.00322234
     atom    4 type  2   force =    -0.00075534   -0.00689664   -0.00164464
     atom    5 type  2   force =     0.00444765    0.00245939    0.00092921
     atom    6 type  2   force =    -0.00374502    0.00364374   -0.00018134
     atom    7 type  2   force =    -0.00098904   -0.00122995    0.00221961
     atom    8 type  2   force =     0.00739757   -0.00495001    0.00067406
     atom    9 type  3   force =     0.00000000    0.00000000    0.00000000
     atom   10 type  3   force =     0.00000000    0.00000000    0.00000000
     atom   11 type  3   force =     0.00000000    0.00000000    0.00000000
     atom   12 type  3   force =     0.00000000    0.00000000    0.00000000
     atom   13 type  3   force =     0.00000000    0.00000000    0.00000000
     atom   14 type  3   force =     0.00000000    0.00000000    0.00000000
     atom   15 type  3   force =     0.00000000    0.00000000    0.00000000
     atom   16 type  3   force =     0.00000000    0.00000000    0.00000000
     atom   17 type  3   force =     0.00000000    0.00000000    0.00000000
     atom   18 type  3   force =     0.00000000    0.00000000    0.00000000
     atom   19 type  3   force =     0.00000000    0.00000000    0.00000000
     atom   20 type  4   force =    -0.00033658   -0.00296220    0.00028630
     The Hubbard contrib.    to forces
     atom    1 type  1   force =     0.00000000    0.00000000    0.00000000
     atom    2 type  1   force =     0.00000000    0.00000000    0.00000000
     atom    3 type  2   force =     0.00000000    0.00000000    0.00000000
     atom    4 type  2   force =     0.00000000    0.00000000    0.00000000
     atom    5 type  2   force =     0.00000000    0.00000000    0.00000000
     atom    6 type  2   force =     0.00000000    0.00000000    0.00000000
     atom    7 type  2   force =     0.00000000    0.00000000    0.00000000
     atom    8 type  2   force =     0.00000000    0.00000000    0.00000000
     atom    9 type  3   force =     0.00000000    0.00000000    0.00000000
     atom   10 type  3   force =     0.00000000    0.00000000    0.00000000
     atom   11 type  3   force =     0.00000000    0.00000000    0.00000000
     atom   12 type  3   force =     0.00000000    0.00000000    0.00000000
     atom   13 type  3   force =     0.00000000    0.00000000    0.00000000
     atom   14 type  3   force =     0.00000000    0.00000000    0.00000000
     atom   15 type  3   force =     0.00000000    0.00000000    0.00000000
     atom   16 type  3   force =     0.00000000    0.00000000    0.00000000
     atom   17 type  3   force =     0.00000000    0.00000000    0.00000000
     atom   18 type  3   force =     0.00000000    0.00000000    0.00000000
     atom   19 type  3   force =     0.00000000    0.00000000    0.00000000
     atom   20 type  4   force =     0.00000000    0.00000000    0.00000000
     The SCF correction term to forces
     atom    1 type  1   force =    -0.00038036    0.00006117    0.00017940
     atom    2 type  1   force =    -0.00012227    0.00015723    0.00014610
     atom    3 type  2   force =    -0.00011500   -0.00000950    0.00022591
     atom    4 type  2   force =     0.00001755   -0.00000651    0.00013035
     atom    5 type  2   force =    -0.00003222    0.00005432    0.00011618
     atom    6 type  2   force =    -0.00002139   -0.00000188    0.00007914
     atom    7 type  2   force =     0.00013369    0.00009895   -0.00013558
     atom    8 type  2   force =    -0.00002502    0.00000375    0.00005954
     atom    9 type  3   force =     0.00001080   -0.00003972    0.00004981
     atom   10 type  3   force =    -0.00001029    0.00003352    0.00005124
     atom   11 type  3   force =    -0.00001192   -0.00004861    0.00001707
     atom   12 type  3   force =    -0.00000126   -0.00000747    0.00001538
     atom   13 type  3   force =    -0.00000186    0.00000590    0.00001095
     atom   14 type  3   force =    -0.00000195    0.00004861   -0.00003460
     atom   15 type  3   force =     0.00005829    0.00002014   -0.00000077
     atom   16 type  3   force =     0.00001712   -0.00003195   -0.00005119
     atom   17 type  3   force =    -0.00000232   -0.00007318   -0.00000139
     atom   18 type  3   force =     0.00004955    0.00002714   -0.00004322
     atom   19 type  3   force =     0.00002032    0.00000873    0.00007132
     atom   20 type  4   force =    -0.00003729    0.00003257    0.00009761

     Total force =     0.084719     Total SCF correction =     0.000670


     Computing stress (Cartesian axis) and pressure


     negative rho (up, down):  8.828E-04 0.000E+00
          total   stress  (Ry/bohr**3)                   (kbar)     P=        0.37
   0.00000284   0.00000035   0.00000026            0.42        0.05        0.04
   0.00000035   0.00000394   0.00000096            0.05        0.58        0.14
   0.00000026   0.00000096   0.00000081            0.04        0.14        0.12


     BFGS Geometry Optimization
     Energy error            =      0.0E+00 Ry
     Gradient error          =      5.7E-02 Ry/Bohr

     number of scf cycles    =   1
     number of bfgs steps    =   0

     energy             new  =    -259.4120457590 Ry

     new trust radius        =       0.0568850864 bohr
     new conv_thr            =       0.0000010000 Ry


ATOMIC_POSITIONS (angstrom)
N             9.5726620294        9.9677336417        9.6419929179
N            11.6779970506        9.6630153235        9.9631805729
C             8.1562417678        9.6915736940        9.3645794560
C            10.5361588274        9.0532363135        9.6737642812
C            10.1084517564       11.2044743756        9.9194762593
C            11.4436973598       11.0158879654       10.1201571995
C             7.3865174992        9.3911806240       10.6344080112
C            12.9777124059        9.0163906560       10.0912829261
H             7.7438652767       10.5666855666        8.8518678612
H             8.1198449155        8.8483409923        8.6757291897
H            10.4082667915        7.9566739754        9.5023376554
H             9.4542569313       12.0636060722        9.9326795130
H            12.2740666112       11.6631392478       10.3565833605
H             7.8013087644        8.5167432066       11.1437427978
H             6.3367595243        9.1835898196       10.3851946134
H             7.4169165635       10.2396058250       11.3254600731
H            12.8652905546        7.9443665349        9.9084711630
H            13.6640988435        9.4466318826        9.3584478470
H            13.3564277121        9.1780058735       11.1038117667
Cl           10.2743588150        5.7945184097        9.8036825351



     Writing config-only to output data dir ./plusCL2.save/
     NEW-OLD atomic charge density approx. for the potential

     negative rho (up, down):  8.737E-04 0.000E+00

     total cpu time spent up to now is      653.0 secs

     Self-consistent Calculation

     iteration #  1     ecut=    60.00 Ry     beta= 0.70
     Davidson diagonalization with overlap
     ethr =  1.00E-06,  avg # of iterations =  7.0

     negative rho (up, down):  8.790E-04 0.000E+00

     total cpu time spent up to now is      707.5 secs

     total energy              =    -259.41600807 Ry
     estimated scf accuracy    <       0.00079562 Ry

     iteration #  2     ecut=    60.00 Ry     beta= 0.70
     Davidson diagonalization with overlap
     ethr =  1.53E-06,  avg # of iterations =  2.0

     negative rho (up, down):  8.827E-04 0.000E+00

     total cpu time spent up to now is      757.0 secs

     total energy              =    -259.41612869 Ry
     estimated scf accuracy    <       0.00018234 Ry

     iteration #  3     ecut=    60.00 Ry     beta= 0.70
     Davidson diagonalization with overlap
     ethr =  3.51E-07,  avg # of iterations =  2.0

     negative rho (up, down):  8.828E-04 0.000E+00

     total cpu time spent up to now is      806.1 secs

     total energy              =    -259.41617262 Ry
     estimated scf accuracy    <       0.00002297 Ry

     iteration #  4     ecut=    60.00 Ry     beta= 0.70
     Davidson diagonalization with overlap
     ethr =  4.42E-08,  avg # of iterations =  2.0

     negative rho (up, down):  8.830E-04 0.000E+00

     total cpu time spent up to now is      854.6 secs

     total energy              =    -259.41617751 Ry
     estimated scf accuracy    <       0.00000307 Ry

     iteration #  5     ecut=    60.00 Ry     beta= 0.70
     Davidson diagonalization with overlap
     ethr =  5.91E-09,  avg # of iterations =  2.0

     negative rho (up, down):  8.830E-04 0.000E+00

     total cpu time spent up to now is      902.7 secs

     End of self-consistent calculation

          k = 0.0000 0.0000 0.0000 (423701 PWs)   bands (ev):

   -27.7574 -24.7034 -20.8881 -20.0094 -18.9067 -17.1514 -16.5063 -15.7258
   -15.3973 -14.4113 -13.1659 -12.6761 -12.3903 -12.1861 -11.5908 -11.5168
   -11.3366 -10.5553 -10.2541  -9.8215  -9.2374  -8.2140  -7.3392  -4.0264
    -3.8782  -3.8475  -1.8675  -1.6926  -1.0048  -0.7030  -0.3190

     the Fermi energy is    -2.8504 ev

!    total energy              =    -259.41617816 Ry
     total all-electron energy =     -1612.266896 Ry
     estimated scf accuracy    <       0.00000027 Ry
     smearing contrib. (-TS)   =       0.00000062 Ry
     internal energy E=F+TS    =    -259.41617878 Ry

     The total energy is F=E-TS. E is the sum of the following terms:
     one-electron contribution =    -797.96784359 Ry
     hartree contribution      =     404.45654719 Ry
     xc contribution           =     -57.93863890 Ry
     ewald contribution        =     290.41404609 Ry
     one-center paw contrib.   =     -98.38028957 Ry

     convergence has been achieved in   5 iterations

     negative rho (up, down):  8.830E-04 0.000E+00

     Forces acting on atoms (cartesian axes, Ry/au):

     atom    1 type  1   force =    -0.01906189    0.00904598   -0.00863886
     atom    2 type  1   force =     0.01689136    0.00985958    0.00450989
     atom    3 type  2   force =    -0.00141678    0.00057624    0.00364968
     atom    4 type  2   force =    -0.00754133   -0.04831104   -0.01570096
     atom    5 type  2   force =    -0.00572083    0.01145379    0.00181041
     atom    6 type  2   force =     0.00917710    0.00333642    0.00412224
     atom    7 type  2   force =    -0.00699948   -0.00205190    0.00418891
     atom    8 type  2   force =     0.00070783   -0.00410398   -0.00011765
     atom    9 type  3   force =     0.00150653    0.00399812   -0.00336538
     atom   10 type  3   force =     0.00128331   -0.00845123   -0.00529060
     atom   11 type  3   force =    -0.00003083   -0.01684735    0.00739490
     atom   12 type  3   force =     0.00751495    0.01084837    0.00272937
     atom   13 type  3   force =    -0.00379491    0.01284784    0.00133428
     atom   14 type  3   force =     0.00093317   -0.00612398    0.00031370
     atom   15 type  3   force =     0.00120754   -0.00007341    0.00148878
     atom   16 type  3   force =    -0.00174939    0.00440748    0.00302694
     atom   17 type  3   force =    -0.00447855   -0.00425238    0.00034656
     atom   18 type  3   force =     0.00522088    0.00128177   -0.00232966
     atom   19 type  3   force =     0.00383283   -0.00069306    0.00319151
     atom   20 type  4   force =     0.00251849    0.02325270   -0.00266405
     The non-local contrib.  to forces
     atom    1 type  1   force =     0.23208934    0.01820659    0.04530047
     atom    2 type  1   force =    -0.17263744    0.06416666   -0.02526877
     atom    3 type  2   force =     0.43150940    0.12763094    0.12385684
     atom    4 type  2   force =     0.06710328    0.60112065    0.12113033
     atom    5 type  2   force =    -0.15297367   -0.29852890   -0.06445889
     atom    6 type  2   force =     0.07784202   -0.33804339   -0.03248069
     atom    7 type  2   force =     0.02926454    0.06583272   -0.10325448
     atom    8 type  2   force =    -0.39786190    0.27229446   -0.03428482
     atom    9 type  3   force =     0.03081855   -0.06019837    0.03681176
     atom   10 type  3   force =     0.00407728    0.06198219    0.05026399
     atom   11 type  3   force =     0.00852842    0.07455263    0.01085196
     atom   12 type  3   force =     0.04908039   -0.06487680   -0.00108675
     atom   13 type  3   force =    -0.06256583   -0.04912107   -0.01788115
     atom   14 type  3   force =    -0.02826058    0.06165682   -0.03605844
     atom   15 type  3   force =     0.07113046    0.01474395    0.01562307
     atom   16 type  3   force =    -0.00129606   -0.05684529   -0.04829756
     atom   17 type  3   force =     0.00708694    0.07865145    0.01275918
     atom   18 type  3   force =    -0.04954763   -0.02894668    0.05194682
     atom   19 type  3   force =    -0.02759507   -0.00981943   -0.07169525
     atom   20 type  4   force =     0.00767028    0.07422332   -0.00799458
     The ionic contribution  to forces
     atom    1 type  1   force =    -5.27966610    1.35140335   -2.29256120
     atom    2 type  1   force =     7.65254739   -0.97204017    0.72994043
     atom    3 type  2   force =    -6.82819426   -0.05566819   -4.24780229
     atom    4 type  2   force =    -0.08175401   -8.28560246   -2.07924625
     atom    5 type  2   force =    -2.05834494   10.75941202    0.69199271
     atom    6 type  2   force =     5.67634409    9.31244347    2.04975507
     atom    7 type  2   force =    -6.33012272   -1.02844056    3.99260431
     atom    8 type  2   force =     8.52118486   -2.96799798    0.79275917
     atom    9 type  3   force =    -2.15133545    2.34983327   -2.03489898
     atom   10 type  3   force =    -1.27238284   -2.21999696   -2.59840433
     atom   11 type  3   force =    -0.17550620   -2.86137326   -0.77095695
     atom   12 type  3   force =    -1.63900358    3.51334623    0.11047620
     atom   13 type  3   force =     2.59216893    2.77188394    0.80968951
     atom   14 type  3   force =    -0.29056760   -2.35254005    2.02528633
     atom   15 type  3   force =    -3.36334786   -0.60498678   -0.12132380
     atom   16 type  3   force =    -1.13364601    1.97028715    2.41873772
     atom   17 type  3   force =     1.22365536   -3.02838658   -0.34214245
     atom   18 type  3   force =     2.96264395    0.69403955   -1.85189023
     atom   19 type  3   force =     2.18152504   -0.00099793    2.79035831
     atom   20 type  4   force =    -0.20619803   -8.34461808   -0.07237330
     The local contribution  to forces
     atom    1 type  1   force =     5.02922210   -1.36045148    2.23879578
     atom    2 type  1   force =    -7.46230963    0.91800634   -0.70004524
     atom    3 type  2   force =     6.40315312   -0.06935026    4.13094210
     atom    4 type  2   force =     0.00788074    7.64115165    1.94369867
     atom    5 type  2   force =     2.20086454  -10.45160614   -0.62668369
     atom    6 type  2   force =    -5.74038747   -8.97504081   -2.01283387
     atom    7 type  2   force =     6.29442355    0.96165351   -3.88734095
     atom    8 type  2   force =    -8.13039416    2.69661418   -0.75928927
     atom    9 type  3   force =     2.12197279   -2.28561404    1.99469184
     atom   10 type  3   force =     1.26957984    2.14954012    2.54283473
     atom   11 type  3   force =     0.16697542    2.77000190    0.76751194
     atom   12 type  3   force =     1.59739614   -3.43750735   -0.10664922
     atom   13 type  3   force =    -2.53336120   -2.70990531   -0.79046343
     atom   14 type  3   force =     0.31974934    2.28475577   -1.98890798
     atom   15 type  3   force =     3.29341110    0.59017567    0.10719488
     atom   16 type  3   force =     1.13316272   -1.90902558   -2.36739192
     atom   17 type  3   force =    -1.23524496    2.94552042    0.32973260
     atom   18 type  3   force =    -2.90789868   -0.66380138    1.79762325
     atom   19 type  3   force =    -2.15011658    0.01013757   -2.71548313
     atom   20 type  4   force =     0.20143412    8.29690693    0.07733396
     The core correction contribution to forces
     atom    1 type  1   force =    -0.00042610   -0.00076486   -0.00019339
     atom    2 type  1   force =    -0.00065657   -0.00061367   -0.00014979
     atom    3 type  2   force =    -0.00810891   -0.00224381   -0.00342634
     atom    4 type  2   force =    -0.00047283   -0.00518839   -0.00126539
     atom    5 type  2   force =     0.00489972    0.00222047    0.00101171
     atom    6 type  2   force =    -0.00422703    0.00378603   -0.00026064
     atom    7 type  2   force =    -0.00071082   -0.00120499    0.00223635
     atom    8 type  2   force =     0.00765971   -0.00501369    0.00068224
     atom    9 type  3   force =     0.00000000    0.00000000    0.00000000
     atom   10 type  3   force =     0.00000000    0.00000000    0.00000000
     atom   11 type  3   force =     0.00000000    0.00000000    0.00000000
     atom   12 type  3   force =     0.00000000    0.00000000    0.00000000
     atom   13 type  3   force =     0.00000000    0.00000000    0.00000000
     atom   14 type  3   force =     0.00000000    0.00000000    0.00000000
     atom   15 type  3   force =     0.00000000    0.00000000    0.00000000
     atom   16 type  3   force =     0.00000000    0.00000000    0.00000000
     atom   17 type  3   force =     0.00000000    0.00000000    0.00000000
     atom   18 type  3   force =     0.00000000    0.00000000    0.00000000
     atom   19 type  3   force =     0.00000000    0.00000000    0.00000000
     atom   20 type  4   force =    -0.00032675   -0.00309328    0.00035395
     The Hubbard contrib.    to forces
     atom    1 type  1   force =     0.00000000    0.00000000    0.00000000
     atom    2 type  1   force =     0.00000000    0.00000000    0.00000000
     atom    3 type  2   force =     0.00000000    0.00000000    0.00000000
     atom    4 type  2   force =     0.00000000    0.00000000    0.00000000
     atom    5 type  2   force =     0.00000000    0.00000000    0.00000000
     atom    6 type  2   force =     0.00000000    0.00000000    0.00000000
     atom    7 type  2   force =     0.00000000    0.00000000    0.00000000
     atom    8 type  2   force =     0.00000000    0.00000000    0.00000000
     atom    9 type  3   force =     0.00000000    0.00000000    0.00000000
     atom   10 type  3   force =     0.00000000    0.00000000    0.00000000
     atom   11 type  3   force =     0.00000000    0.00000000    0.00000000
     atom   12 type  3   force =     0.00000000    0.00000000    0.00000000
     atom   13 type  3   force =     0.00000000    0.00000000    0.00000000
     atom   14 type  3   force =     0.00000000    0.00000000    0.00000000
     atom   15 type  3   force =     0.00000000    0.00000000    0.00000000
     atom   16 type  3   force =     0.00000000    0.00000000    0.00000000
     atom   17 type  3   force =     0.00000000    0.00000000    0.00000000
     atom   18 type  3   force =     0.00000000    0.00000000    0.00000000
     atom   19 type  3   force =     0.00000000    0.00000000    0.00000000
     atom   20 type  4   force =     0.00000000    0.00000000    0.00000000
     The SCF correction term to forces
     atom    1 type  1   force =    -0.00028225    0.00067279    0.00002240
     atom    2 type  1   force =    -0.00005348    0.00036084    0.00003617
     atom    3 type  2   force =     0.00022275    0.00022797    0.00008228
     atom    4 type  2   force =    -0.00029960    0.00022792   -0.00001542
     atom    5 type  2   force =    -0.00016759   -0.00002325   -0.00004852
     atom    6 type  2   force =    -0.00039561    0.00021154   -0.00005472
     atom    7 type  2   force =     0.00014487    0.00012782   -0.00005342
     atom    8 type  2   force =     0.00011823    0.00001946    0.00001795
     atom    9 type  3   force =     0.00004954   -0.00000233    0.00003291
     atom   10 type  3   force =     0.00000793    0.00004383    0.00001793
     atom   11 type  3   force =    -0.00002957   -0.00000822   -0.00000914
     atom   12 type  3   force =     0.00004090   -0.00009329   -0.00000796
     atom   13 type  3   force =    -0.00003791    0.00001069   -0.00000774
     atom   14 type  3   force =     0.00001091    0.00002389   -0.00000331
     atom   15 type  3   force =     0.00001273    0.00001416   -0.00000245
     atom   16 type  3   force =     0.00002885    0.00001160   -0.00001838
     atom   17 type  3   force =     0.00002300   -0.00001725    0.00000015
     atom   18 type  3   force =     0.00002213    0.00001070   -0.00000659
     atom   19 type  3   force =     0.00001833    0.00000714    0.00001448
     atom   20 type  4   force =    -0.00006223   -0.00014578    0.00001884

     Total force =     0.074170     Total SCF correction =     0.001121


     Computing stress (Cartesian axis) and pressure


     negative rho (up, down):  8.830E-04 0.000E+00
          total   stress  (Ry/bohr**3)                   (kbar)     P=        0.26
   0.00000222   0.00000025   0.00000006            0.33        0.04        0.01
   0.00000025   0.00000231   0.00000076            0.04        0.34        0.11
   0.00000006   0.00000076   0.00000077            0.01        0.11        0.11

     Energy error            =      4.1E-03 Ry
     Gradient error          =      4.8E-02 Ry/Bohr

     number of scf cycles    =   2
     number of bfgs steps    =   1

     energy             old  =    -259.4120457590 Ry
     energy             new  =    -259.4161781589 Ry

     CASE: energy            _new < energy            _old

     new trust radius        =       0.0823308946 bohr
     new conv_thr            =       0.0000004132 Ry


ATOMIC_POSITIONS (angstrom)
N             9.5647225964        9.9738921272        9.6325063752
N            11.6849330163        9.6634120519        9.9652403558
C             8.1364803629        9.6847872436        9.3637108670
C            10.5325765044        9.0322448615        9.6609081279
C            10.1070005991       11.2140560251        9.9227168567
C            11.4488207962       11.0209292633       10.1239950964
C             7.3839937902        9.3895205280       10.6429871190
C            12.9869267604        9.0101863453       10.0915670467
H             7.7479251515       10.5722563907        8.8480021954
H             8.1235237446        8.8414564234        8.6716676699
H            10.4059433621        7.9134500053        9.5072801998
H             9.4604311460       12.0814731636        9.9360806827
H            12.2727860362       11.6825397447       10.3592024679
H             7.8021323445        8.5093008953       11.1435041274
H             6.3358699430        9.1832078029       10.3847931696
H             7.4143012727       10.2454609103       11.3293549565
H            12.8581981049        7.9393369520        9.9088241447
H            13.6700357911        9.4483518158        9.3559803690
H            13.3608581923        9.1773520034       11.1077599662
Cl           10.2774404850        5.8221854467        9.8007682062



     Writing config-only to output data dir ./plusCL2.save/
     NEW-OLD atomic charge density approx. for the potential

     negative rho (up, down):  8.796E-04 0.000E+00

     total cpu time spent up to now is     1054.3 secs

     Self-consistent Calculation

     iteration #  1     ecut=    60.00 Ry     beta= 0.70
     Davidson diagonalization with overlap
     ethr =  1.00E-06,  avg # of iterations =  7.0

     negative rho (up, down):  8.734E-04 0.000E+00

     total cpu time spent up to now is     1110.4 secs

     total energy              =    -259.42012007 Ry
     estimated scf accuracy    <       0.00206576 Ry

     iteration #  2     ecut=    60.00 Ry     beta= 0.70
     Davidson diagonalization with overlap
     ethr =  3.97E-06,  avg # of iterations =  2.0

     negative rho (up, down):  8.843E-04 0.000E+00

     total cpu time spent up to now is     1159.0 secs

     total energy              =    -259.42049477 Ry
     estimated scf accuracy    <       0.00058850 Ry

     iteration #  3     ecut=    60.00 Ry     beta= 0.70
     Davidson diagonalization with overlap
     ethr =  1.13E-06,  avg # of iterations =  2.0

     negative rho (up, down):  8.812E-04 0.000E+00

     total cpu time spent up to now is     1207.9 secs

     total energy              =    -259.42062043 Ry
     estimated scf accuracy    <       0.00007853 Ry

     iteration #  4     ecut=    60.00 Ry     beta= 0.70
     Davidson diagonalization with overlap
     ethr =  1.51E-07,  avg # of iterations =  2.0

     negative rho (up, down):  8.795E-04 0.000E+00

     total cpu time spent up to now is     1256.9 secs

     total energy              =    -259.42064242 Ry
     estimated scf accuracy    <       0.00001365 Ry

     iteration #  5     ecut=    60.00 Ry     beta= 0.70
     Davidson diagonalization with overlap
     ethr =  2.62E-08,  avg # of iterations =  2.0

     negative rho (up, down):  8.796E-04 0.000E+00

     total cpu time spent up to now is     1304.8 secs

     total energy              =    -259.42064468 Ry
     estimated scf accuracy    <       0.00000067 Ry

     iteration #  6     ecut=    60.00 Ry     beta= 0.70
     Davidson diagonalization with overlap
     ethr =  1.28E-09,  avg # of iterations =  4.0

     negative rho (up, down):  8.798E-04 0.000E+00

     total cpu time spent up to now is     1354.2 secs

     End of self-consistent calculation

          k = 0.0000 0.0000 0.0000 (423701 PWs)   bands (ev):

   -27.3998 -24.4690 -20.7547 -19.8344 -18.7995 -17.0335 -16.3008 -15.8023
   -15.3430 -14.2442 -12.9603 -12.5684 -12.2525 -12.0900 -11.4665 -11.4182
   -11.2748 -10.5087 -10.1757  -9.7909  -9.2433  -8.1104  -7.2230  -4.1443
    -3.9869  -3.9546  -1.9216  -1.6663  -0.9829  -0.6854  -0.3080

     the Fermi energy is    -2.9314 ev

!    total energy              =    -259.42064488 Ry
     total all-electron energy =     -1612.271363 Ry
     estimated scf accuracy    <       0.00000014 Ry
     smearing contrib. (-TS)   =       0.00000032 Ry
     internal energy E=F+TS    =    -259.42064519 Ry

     The total energy is F=E-TS. E is the sum of the following terms:
     one-electron contribution =    -794.92368933 Ry
     hartree contribution      =     403.04009291 Ry
     xc contribution           =     -57.83341040 Ry
     ewald contribution        =     288.67469160 Ry
     one-center paw contrib.   =     -98.37832998 Ry

     convergence has been achieved in   6 iterations

     negative rho (up, down):  8.798E-04 0.000E+00

     Forces acting on atoms (cartesian axes, Ry/au):

     atom    1 type  1   force =     0.00498606   -0.01393023   -0.00396426
     atom    2 type  1   force =    -0.01180601   -0.00297805   -0.00425609
     atom    3 type  2   force =     0.01971485    0.01229501    0.00223633
     atom    4 type  2   force =    -0.00028143    0.00154347   -0.00472163
     atom    5 type  2   force =     0.00072434   -0.00644247   -0.00172853
     atom    6 type  2   force =    -0.00283874   -0.00493601    0.00138886
     atom    7 type  2   force =    -0.00932573   -0.00167921   -0.00065428
     atom    8 type  2   force =    -0.00443528    0.00356238    0.00064262
     atom    9 type  3   force =    -0.00431463   -0.00152671   -0.00176310
     atom   10 type  3   force =    -0.00320121   -0.00662433   -0.00306895
     atom   11 type  3   force =     0.00055923   -0.00440414    0.00815897
     atom   12 type  3   force =     0.00797660    0.00748139    0.00256056
     atom   13 type  3   force =    -0.00573556    0.00731430    0.00062051
     atom   14 type  3   force =    -0.00029103   -0.00280345    0.00059719
     atom   15 type  3   force =    -0.00000683   -0.00067743    0.00493543
     atom   16 type  3   force =    -0.00126123    0.00005616    0.00104278
     atom   17 type  3   force =    -0.00138128   -0.00318134    0.00043643
     atom   18 type  3   force =     0.00426130   -0.00244705    0.00039691
     atom   19 type  3   force =     0.00432848   -0.00264811   -0.00019994
     atom   20 type  4   force =     0.00232809    0.02202581   -0.00265979
     The non-local contrib.  to forces
     atom    1 type  1   force =     0.23784192    0.00700035    0.06364024
     atom    2 type  1   force =    -0.16500293    0.06504726   -0.03626683
     atom    3 type  2   force =     0.44146504    0.13814777    0.11674413
     atom    4 type  2   force =     0.07713197    0.65925716    0.13682345
     atom    5 type  2   force =    -0.15057113   -0.30777843   -0.07217585
     atom    6 type  2   force =     0.06970350   -0.34045934   -0.03381919
     atom    7 type  2   force =     0.02536654    0.06552570   -0.11010576
     atom    8 type  2   force =    -0.39409173    0.27785261   -0.03163708
     atom    9 type  3   force =     0.02825494   -0.06082076    0.03673864
     atom   10 type  3   force =     0.00191334    0.06166976    0.05035347
     atom   11 type  3   force =     0.00772580    0.06976916    0.00898101
     atom   12 type  3   force =     0.04805517   -0.06502391   -0.00110141
     atom   13 type  3   force =    -0.06114494   -0.04970718   -0.01752766
     atom   14 type  3   force =    -0.02838112    0.06174491   -0.03511918
     atom   15 type  3   force =     0.07086636    0.01457736    0.01648290
     atom   16 type  3   force =    -0.00126728   -0.05692021   -0.04746625
     atom   17 type  3   force =     0.00848150    0.07840219    0.01273487
     atom   18 type  3   force =    -0.04865019   -0.02942208    0.05164658
     atom   19 type  3   force =    -0.02683148   -0.01027427   -0.07134785
     atom   20 type  4   force =     0.00752637    0.07546701   -0.00857600
     The ionic contribution  to forces
     atom    1 type  1   force =    -5.06967495    1.38794811   -2.38545246
     atom    2 type  1   force =     7.38161436   -0.93995575    0.74023408
     atom    3 type  2   force =    -6.80057773   -0.08009158   -4.21293666
     atom    4 type  2   force =    -0.07146458   -8.08370214   -2.17440874
     atom    5 type  2   force =    -2.02531041   10.58787950    0.73568332
     atom    6 type  2   force =     5.60348003    9.16818211    2.04995975
     atom    7 type  2   force =    -6.26777981   -1.01071780    4.08365838
     atom    8 type  2   force =     8.49040282   -2.95530055    0.78195270
     atom    9 type  3   force =    -2.10901705    2.35842185   -2.03027129
     atom   10 type  3   force =    -1.23485475   -2.21113994   -2.59241492
     atom   11 type  3   force =    -0.16125455   -2.70731953   -0.71872302
     atom   12 type  3   force =    -1.61111168    3.49764897    0.11245954
     atom   13 type  3   force =     2.55308918    2.76780822    0.79921213
     atom   14 type  3   force =    -0.28288981   -2.35067564    2.00693521
     atom   15 type  3   force =    -3.36206758   -0.60264555   -0.12942555
     atom   16 type  3   force =    -1.12490610    1.97194352    2.39969674
     atom   17 type  3   force =     1.19950663   -3.01866953   -0.33892043
     atom   18 type  3   force =     2.94074964    0.70294959   -1.84444945
     atom   19 type  3   force =     2.16329847    0.00810908    2.78122919
     atom   20 type  4   force =    -0.21123216   -8.49067292   -0.06401854
     The local contribution  to forces
     atom    1 type  1   force =     4.83764740   -1.40805943    2.31840180
     atom    2 type  1   force =    -7.22827939    0.87256131   -0.70835877
     atom    3 type  2   force =     6.38722414   -0.04324105    4.10177142
     atom    4 type  2   force =    -0.00544330    7.43287973    2.03436838
     atom    5 type  2   force =     2.17156493  -10.28931068   -0.66641444
     atom    6 type  2   force =    -5.67233274   -8.83660445   -2.01457894
     atom    7 type  2   force =     6.23381949    0.94480280   -3.97631129
     atom    8 type  2   force =    -8.10819071    2.68607510   -0.75032063
     atom    9 type  3   force =     2.07646974   -2.29912243    1.99177654
     atom   10 type  3   force =     1.22974397    2.14286237    2.53899028
     atom   11 type  3   force =     0.15406277    2.63312897    0.71788464
     atom   12 type  3   force =     1.57104582   -3.42521022   -0.10880795
     atom   13 type  3   force =    -2.49768333   -2.71076393   -0.78106417
     atom   14 type  3   force =     0.31097438    2.28614510   -1.97122883
     atom   15 type  3   force =     3.29119580    0.58739702    0.11787682
     atom   16 type  3   force =     1.12492174   -1.91496938   -2.35120770
     atom   17 type  3   force =    -1.20936519    2.93705290    0.32661313
     atom   18 type  3   force =    -2.88781678   -0.67596859    1.79317537
     atom   19 type  3   force =    -2.13212479   -0.00048402   -2.71005900
     atom   20 type  4   force =     0.20627943    8.44004278    0.06960818
     The core correction contribution to forces
     atom    1 type  1   force =    -0.00094304   -0.00043093   -0.00050197
     atom    2 type  1   force =    -0.00028536   -0.00053266    0.00011023
     atom    3 type  2   force =    -0.00827459   -0.00239336   -0.00329300
     atom    4 type  2   force =    -0.00072810   -0.00671762   -0.00155057
     atom    5 type  2   force =     0.00480777    0.00266567    0.00112824
     atom    6 type  2   force =    -0.00399378    0.00400253   -0.00021172
     atom    7 type  2   force =    -0.00068633   -0.00122106    0.00211652
     atom    8 type  2   force =     0.00750602   -0.00508678    0.00065063
     atom    9 type  3   force =     0.00000000    0.00000000    0.00000000
     atom   10 type  3   force =     0.00000000    0.00000000    0.00000000
     atom   11 type  3   force =     0.00000000    0.00000000    0.00000000
     atom   12 type  3   force =     0.00000000    0.00000000    0.00000000
     atom   13 type  3   force =     0.00000000    0.00000000    0.00000000
     atom   14 type  3   force =     0.00000000    0.00000000    0.00000000
     atom   15 type  3   force =     0.00000000    0.00000000    0.00000000
     atom   16 type  3   force =     0.00000000    0.00000000    0.00000000
     atom   17 type  3   force =     0.00000000    0.00000000    0.00000000
     atom   18 type  3   force =     0.00000000    0.00000000    0.00000000
     atom   19 type  3   force =     0.00000000    0.00000000    0.00000000
     atom   20 type  4   force =    -0.00030455   -0.00295761    0.00036087
     The Hubbard contrib.    to forces
     atom    1 type  1   force =     0.00000000    0.00000000    0.00000000
     atom    2 type  1   force =     0.00000000    0.00000000    0.00000000
     atom    3 type  2   force =     0.00000000    0.00000000    0.00000000
     atom    4 type  2   force =     0.00000000    0.00000000    0.00000000
     atom    5 type  2   force =     0.00000000    0.00000000    0.00000000
     atom    6 type  2   force =     0.00000000    0.00000000    0.00000000
     atom    7 type  2   force =     0.00000000    0.00000000    0.00000000
     atom    8 type  2   force =     0.00000000    0.00000000    0.00000000
     atom    9 type  3   force =     0.00000000    0.00000000    0.00000000
     atom   10 type  3   force =     0.00000000    0.00000000    0.00000000
     atom   11 type  3   force =     0.00000000    0.00000000    0.00000000
     atom   12 type  3   force =     0.00000000    0.00000000    0.00000000
     atom   13 type  3   force =     0.00000000    0.00000000    0.00000000
     atom   14 type  3   force =     0.00000000    0.00000000    0.00000000
     atom   15 type  3   force =     0.00000000    0.00000000    0.00000000
     atom   16 type  3   force =     0.00000000    0.00000000    0.00000000
     atom   17 type  3   force =     0.00000000    0.00000000    0.00000000
     atom   18 type  3   force =     0.00000000    0.00000000    0.00000000
     atom   19 type  3   force =     0.00000000    0.00000000    0.00000000
     atom   20 type  4   force =     0.00000000    0.00000000    0.00000000
     The SCF correction term to forces
     atom    1 type  1   force =     0.00011200   -0.00039017   -0.00005719
     atom    2 type  1   force =     0.00014460   -0.00010003    0.00001988
     atom    3 type  2   force =    -0.00012473   -0.00012861   -0.00005489
     atom    4 type  2   force =     0.00021985   -0.00017550    0.00004053
     atom    5 type  2   force =     0.00023045    0.00009963    0.00004489
     atom    6 type  2   force =     0.00030151   -0.00005869    0.00003366
     atom    7 type  2   force =    -0.00004835   -0.00007068   -0.00001745
     atom    8 type  2   force =    -0.00006441    0.00002016   -0.00000831
     atom    9 type  3   force =    -0.00002498   -0.00000720   -0.00001231
     atom   10 type  3   force =    -0.00000650   -0.00001834   -0.00000308
     atom   11 type  3   force =     0.00002249    0.00001543    0.00001102
     atom   12 type  3   force =    -0.00001543    0.00006472    0.00000506
     atom   13 type  3   force =     0.00000081   -0.00002463   -0.00000510
     atom   14 type  3   force =     0.00000280   -0.00001966    0.00000467
     atom   15 type  3   force =    -0.00000415   -0.00000809   -0.00000405
     atom   16 type  3   force =    -0.00001232    0.00000040    0.00001467
     atom   17 type  3   force =    -0.00000695    0.00003127    0.00000354
     atom   18 type  3   force =    -0.00002410   -0.00000780    0.00001909
     atom   19 type  3   force =    -0.00001644   -0.00000072   -0.00002759
     atom   20 type  4   force =     0.00005627    0.00014472   -0.00003962

     Total force =     0.046427     Total SCF correction =     0.000724


     Computing stress (Cartesian axis) and pressure


     negative rho (up, down):  8.798E-04 0.000E+00
          total   stress  (Ry/bohr**3)                   (kbar)     P=       -0.15
  -0.00000093   0.00000001  -0.00000051           -0.14        0.00       -0.07
   0.00000001  -0.00000217   0.00000007            0.00       -0.32        0.01
  -0.00000051   0.00000007   0.00000012           -0.07        0.01        0.02

     Energy error            =      4.5E-03 Ry
     Gradient error          =      2.2E-02 Ry/Bohr

     number of scf cycles    =   3
     number of bfgs steps    =   2

     energy             old  =    -259.4161781589 Ry
     energy             new  =    -259.4206448777 Ry

     CASE: energy            _new < energy            _old

     new trust radius        =       0.0488304233 bohr
     new conv_thr            =       0.0000002203 Ry


ATOMIC_POSITIONS (angstrom)
N             9.5649740059        9.9679141083        9.6259704933
N            11.6801746440        9.6612317467        9.9634007024
C             8.1389058288        9.6889148071        9.3644368083
C            10.5310918611        9.0257204380        9.6526747343
C            10.1070611088       11.2141561541        9.9231424689
C            11.4490676107       11.0201968124       10.1264727884
C             7.3775006636        9.3878091629       10.6465305108
C            12.9886826361        9.0095616924       10.0921025570
H             7.7471966812       10.5738148226        8.8452403068
H             8.1232986392        8.8345621143        8.6681274839
H            10.4051525456        7.8906763226        9.5142207495
H             9.4678542689       12.0941026976        9.9391370103
H            12.2688957277       11.6957005038       10.3607792564
H             7.8023034644        8.5043221868       11.1437325661
H             6.3353631064        9.1826143888       10.3875099303
H             7.4123609633       10.2480958157       11.3317129601
H            12.8541594291        7.9351972678        9.9092413836
H            13.6752181107        9.4476302553        9.3551524545
H            13.3654267079        9.1754646570       11.1093797218
Cl           10.2802119966        5.8477140458        9.7978851134



     Writing config-only to output data dir ./plusCL2.save/
     NEW-OLD atomic charge density approx. for the potential

     negative rho (up, down):  8.727E-04 0.000E+00

     total cpu time spent up to now is     1503.7 secs

     Self-consistent Calculation

     iteration #  1     ecut=    60.00 Ry     beta= 0.70
     Davidson diagonalization with overlap
     ethr =  1.00E-06,  avg # of iterations =  7.0

     negative rho (up, down):  8.739E-04 0.000E+00

     total cpu time spent up to now is     1557.3 secs

     total energy              =    -259.42250949 Ry
     estimated scf accuracy    <       0.00054620 Ry

     iteration #  2     ecut=    60.00 Ry     beta= 0.70
     Davidson diagonalization with overlap
     ethr =  1.05E-06,  avg # of iterations =  4.0

     negative rho (up, down):  8.781E-04 0.000E+00

     total cpu time spent up to now is     1607.0 secs

     total energy              =    -259.42259778 Ry
     estimated scf accuracy    <       0.00020090 Ry

     iteration #  3     ecut=    60.00 Ry     beta= 0.70
     Davidson diagonalization with overlap
     ethr =  3.86E-07,  avg # of iterations =  3.0

     negative rho (up, down):  8.784E-04 0.000E+00

     total cpu time spent up to now is     1655.7 secs

     total energy              =    -259.42264902 Ry
     estimated scf accuracy    <       0.00002017 Ry

     iteration #  4     ecut=    60.00 Ry     beta= 0.70
     Davidson diagonalization with overlap
     ethr =  3.88E-08,  avg # of iterations =  3.0

     negative rho (up, down):  8.786E-04 0.000E+00

     total cpu time spent up to now is     1705.1 secs

     total energy              =    -259.42265399 Ry
     estimated scf accuracy    <       0.00000239 Ry

     iteration #  5     ecut=    60.00 Ry     beta= 0.70
     Davidson diagonalization with overlap
     ethr =  4.60E-09,  avg # of iterations =  2.0

     negative rho (up, down):  8.787E-04 0.000E+00

     total cpu time spent up to now is     1753.5 secs

     total energy              =    -259.42265444 Ry
     estimated scf accuracy    <       0.00000031 Ry

     iteration #  6     ecut=    60.00 Ry     beta= 0.70
     Davidson diagonalization with overlap
     ethr =  6.04E-10,  avg # of iterations =  2.0

     negative rho (up, down):  8.788E-04 0.000E+00

     total cpu time spent up to now is     1802.1 secs

     End of self-consistent calculation

          k = 0.0000 0.0000 0.0000 (423701 PWs)   bands (ev):

   -27.3268 -24.3902 -20.6775 -19.7847 -18.7093 -16.9788 -16.2449 -15.8801
   -15.2926 -14.1605 -12.8978 -12.5104 -12.1941 -12.0070 -11.4044 -11.3365
   -11.1863 -10.4622 -10.1262  -9.7640  -9.1996  -8.0436  -7.1918  -4.2248
    -4.0622  -4.0282  -1.8779  -1.6457  -0.9672  -0.6702  -0.3067

     the Fermi energy is    -2.9473 ev

!    total energy              =    -259.42265451 Ry
     total all-electron energy =     -1612.273372 Ry
     estimated scf accuracy    <       0.00000004 Ry
     smearing contrib. (-TS)   =       0.00000007 Ry
     internal energy E=F+TS    =    -259.42265458 Ry

     The total energy is F=E-TS. E is the sum of the following terms:
     one-electron contribution =    -794.75320207 Ry
     hartree contribution      =     403.00854769 Ry
     xc contribution           =     -57.79478117 Ry
     ewald contribution        =     288.49434257 Ry
     one-center paw contrib.   =     -98.37756159 Ry

     convergence has been achieved in   6 iterations

     negative rho (up, down):  8.788E-04 0.000E+00

     Forces acting on atoms (cartesian axes, Ry/au):

     atom    1 type  1   force =     0.00506674   -0.00032436    0.00013092
     atom    2 type  1   force =     0.00080525   -0.00325863   -0.00242209
     atom    3 type  2   force =     0.01174842   -0.00392539   -0.00464455
     atom    4 type  2   force =     0.00118219   -0.00110743   -0.00257045
     atom    5 type  2   force =    -0.00154180   -0.00745082   -0.00269863
     atom    6 type  2   force =    -0.00518461   -0.00285465    0.00070966
     atom    7 type  2   force =     0.00539592    0.00169468   -0.00154611
     atom    8 type  2   force =    -0.00754981    0.00054527   -0.00154039
     atom    9 type  3   force =    -0.00337370   -0.00208016   -0.00075277
     atom   10 type  3   force =    -0.00400871    0.00425362    0.00505890
     atom   11 type  3   force =     0.00118220    0.00294381    0.00786133
     atom   12 type  3   force =     0.01015623   -0.00095553    0.00176215
     atom   13 type  3   force =    -0.00934409    0.00025219   -0.00069926
     atom   14 type  3   force =    -0.00254236    0.00129360   -0.00072093
     atom   15 type  3   force =    -0.00615037   -0.00173830    0.00314325
     atom   16 type  3   force =    -0.00195102   -0.00343572    0.00000287
     atom   17 type  3   force =     0.00050967    0.00176745    0.00117341
     atom   18 type  3   force =     0.00104905   -0.00391224    0.00248366
     atom   19 type  3   force =     0.00231517   -0.00250825   -0.00214638
     atom   20 type  4   force =     0.00223561    0.02080087   -0.00258457
     The non-local contrib.  to forces
     atom    1 type  1   force =     0.22202205    0.01408805    0.07034301
     atom    2 type  1   force =    -0.14995744    0.07048120   -0.03731894
     atom    3 type  2   force =     0.43326269    0.11850353    0.10867447
     atom    4 type  2   force =     0.07882951    0.67398203    0.14270969
     atom    5 type  2   force =    -0.15761626   -0.30480710   -0.07569143
     atom    6 type  2   force =     0.07414914   -0.33549462   -0.03496018
     atom    7 type  2   force =     0.04206955    0.06867826   -0.10902609
     atom    8 type  2   force =    -0.39321674    0.27303935   -0.03344731
     atom    9 type  3   force =     0.02844151   -0.06044925    0.03692145
     atom   10 type  3   force =     0.00196514    0.06000342    0.04857961
     atom   11 type  3   force =     0.00721109    0.06628844    0.00764925
     atom   12 type  3   force =     0.04634080   -0.06471404   -0.00132163
     atom   13 type  3   force =    -0.05955029   -0.04996313   -0.01711565
     atom   14 type  3   force =    -0.02853257    0.06117512   -0.03435991
     atom   15 type  3   force =     0.07197331    0.01480270    0.01692887
     atom   16 type  3   force =    -0.00164506   -0.05672709   -0.04681267
     atom   17 type  3   force =     0.00889104    0.07748647    0.01255463
     atom   18 type  3   force =    -0.04838796   -0.02910633    0.05115670
     atom   19 type  3   force =    -0.02691348   -0.01010210   -0.07094847
     atom   20 type  4   force =     0.00759222    0.07651369   -0.00874044
     The ionic contribution  to forces
     atom    1 type  1   force =    -5.00754238    1.43287388   -2.42982730
     atom    2 type  1   force =     7.38914467   -0.93751700    0.75242590
     atom    3 type  2   force =    -6.85858210   -0.05605574   -4.17100903
     atom    4 type  2   force =    -0.04835606   -8.10172693   -2.26574742
     atom    5 type  2   force =    -2.07845387   10.53366763    0.74441081
     atom    6 type  2   force =     5.63047520    9.13489849    2.09332384
     atom    7 type  2   force =    -6.23211850   -1.00022937    4.06610127
     atom    8 type  2   force =     8.46904363   -2.91440563    0.78556682
     atom    9 type  3   force =    -2.11007726    2.35106548   -2.02913038
     atom   10 type  3   force =    -1.24255612   -2.18193919   -2.55858046
     atom   11 type  3   force =    -0.15175732   -2.61671825   -0.67931369
     atom   12 type  3   force =    -1.57644172    3.48085997    0.11804498
     atom   13 type  3   force =     2.51862687    2.76461375    0.79031942
     atom   14 type  3   force =    -0.27987495   -2.33796271    1.99088875
     atom   15 type  3   force =    -3.37681653   -0.60515565   -0.13725799
     atom   16 type  3   force =    -1.11452729    1.96811373    2.38593644
     atom   17 type  3   force =     1.19676419   -2.99863903   -0.33260835
     atom   18 type  3   force =     2.92972244    0.69899151   -1.83148075
     atom   19 type  3   force =     2.15919855    0.00834113    2.76897856
     atom   20 type  4   force =    -0.21587144   -8.62307606   -0.06104139
     The local contribution  to forces
     atom    1 type  1   force =     4.79118037   -1.44641772    2.36026526
     atom    2 type  1   force =    -7.23782216    0.86446798   -0.71762299
     atom    3 type  2   force =     6.44506660   -0.06439436    4.06087217
     atom    4 type  2   force =    -0.02860213    7.43349896    2.12201360
     atom    5 type  2   force =     2.22929719  -10.23903428   -0.67265745
     atom    6 type  2   force =    -5.70570509   -8.80612192   -2.05741035
     atom    7 type  2   force =     6.19659279    0.93459023   -3.96077118
     atom    8 type  2   force =    -8.09087070    2.64694157   -0.75436120
     atom    9 type  3   force =     2.07827512   -2.29270508    1.99147077
     atom   10 type  3   force =     1.23657843    2.12621535    2.51507284
     atom   11 type  3   force =     0.14571632    2.55336893    0.67951694
     atom   12 type  3   force =     1.54026404   -3.41712185   -0.11496531
     atom   13 type  3   force =    -2.46842706   -2.71438362   -0.77390443
     atom   14 type  3   force =     0.30585945    2.27811097   -1.95727064
     atom   15 type  3   force =     3.29871895    0.58862993    0.12346722
     atom   16 type  3   force =     1.11422893   -1.91482912   -2.33915011
     atom   17 type  3   force =    -1.20513811    2.92291766    0.32122379
     atom   18 type  3   force =    -2.88027700   -0.67379210    1.78280053
     atom   19 type  3   force =    -2.12996395   -0.00074274   -2.70017370
     atom   20 type  4   force =     0.21077731    8.57013817    0.06688308
     The core correction contribution to forces
     atom    1 type  1   force =    -0.00077760   -0.00067854   -0.00062751
     atom    2 type  1   force =    -0.00053492   -0.00062536    0.00012244
     atom    3 type  2   force =    -0.00798769   -0.00193455   -0.00312341
     atom    4 type  2   force =    -0.00079510   -0.00677235   -0.00156282
     atom    5 type  2   force =     0.00512516    0.00273400    0.00123080
     atom    6 type  2   force =    -0.00420555    0.00394476   -0.00024009
     atom    7 type  2   force =    -0.00110959   -0.00128792    0.00208232
     atom    8 type  2   force =     0.00753477   -0.00503294    0.00070694
     atom    9 type  3   force =     0.00000000    0.00000000    0.00000000
     atom   10 type  3   force =     0.00000000    0.00000000    0.00000000
     atom   11 type  3   force =     0.00000000    0.00000000    0.00000000
     atom   12 type  3   force =     0.00000000    0.00000000    0.00000000
     atom   13 type  3   force =     0.00000000    0.00000000    0.00000000
     atom   14 type  3   force =     0.00000000    0.00000000    0.00000000
     atom   15 type  3   force =     0.00000000    0.00000000    0.00000000
     atom   16 type  3   force =     0.00000000    0.00000000    0.00000000
     atom   17 type  3   force =     0.00000000    0.00000000    0.00000000
     atom   18 type  3   force =     0.00000000    0.00000000    0.00000000
     atom   19 type  3   force =     0.00000000    0.00000000    0.00000000
     atom   20 type  4   force =    -0.00029467   -0.00289604    0.00034816
     The Hubbard contrib.    to forces
     atom    1 type  1   force =     0.00000000    0.00000000    0.00000000
     atom    2 type  1   force =     0.00000000    0.00000000    0.00000000
     atom    3 type  2   force =     0.00000000    0.00000000    0.00000000
     atom    4 type  2   force =     0.00000000    0.00000000    0.00000000
     atom    5 type  2   force =     0.00000000    0.00000000    0.00000000
     atom    6 type  2   force =     0.00000000    0.00000000    0.00000000
     atom    7 type  2   force =     0.00000000    0.00000000    0.00000000
     atom    8 type  2   force =     0.00000000    0.00000000    0.00000000
     atom    9 type  3   force =     0.00000000    0.00000000    0.00000000
     atom   10 type  3   force =     0.00000000    0.00000000    0.00000000
     atom   11 type  3   force =     0.00000000    0.00000000    0.00000000
     atom   12 type  3   force =     0.00000000    0.00000000    0.00000000
     atom   13 type  3   force =     0.00000000    0.00000000    0.00000000
     atom   14 type  3   force =     0.00000000    0.00000000    0.00000000
     atom   15 type  3   force =     0.00000000    0.00000000    0.00000000
     atom   16 type  3   force =     0.00000000    0.00000000    0.00000000
     atom   17 type  3   force =     0.00000000    0.00000000    0.00000000
     atom   18 type  3   force =     0.00000000    0.00000000    0.00000000
     atom   19 type  3   force =     0.00000000    0.00000000    0.00000000
     atom   20 type  4   force =     0.00000000    0.00000000    0.00000000
     The SCF correction term to forces
     atom    1 type  1   force =     0.00018427   -0.00018596   -0.00002639
     atom    2 type  1   force =    -0.00002491   -0.00006139   -0.00003233
     atom    3 type  2   force =    -0.00001108   -0.00004021   -0.00006259
     atom    4 type  2   force =     0.00010597   -0.00008508    0.00001267
     atom    5 type  2   force =     0.00010597   -0.00000700    0.00000481
     atom    6 type  2   force =     0.00010169   -0.00007729   -0.00000740
     atom    7 type  2   force =    -0.00003834   -0.00005246    0.00006374
     atom    8 type  2   force =    -0.00004077    0.00000699   -0.00000948
     atom    9 type  3   force =    -0.00001306    0.00001276   -0.00001844
     atom   10 type  3   force =     0.00000383   -0.00002188   -0.00001693
     atom   11 type  3   force =     0.00001210    0.00000875    0.00000499
     atom   12 type  3   force =    -0.00000690    0.00002445    0.00000027
     atom   13 type  3   force =     0.00000638   -0.00001074   -0.00000244
     atom   14 type  3   force =     0.00000569   -0.00002571    0.00001704
     atom   15 type  3   force =    -0.00002610   -0.00001121    0.00000132
     atom   16 type  3   force =    -0.00000761    0.00001083    0.00002537
     atom   17 type  3   force =    -0.00000746    0.00000641   -0.00000050
     atom   18 type  3   force =    -0.00000843   -0.00000126    0.00000335
     atom   19 type  3   force =    -0.00000596   -0.00000047   -0.00000660
     atom   20 type  4   force =     0.00003218    0.00012518   -0.00003781

     Total force =     0.036439     Total SCF correction =     0.000400


     Computing stress (Cartesian axis) and pressure


     negative rho (up, down):  8.788E-04 0.000E+00
          total   stress  (Ry/bohr**3)                   (kbar)     P=       -0.29
  -0.00000121  -0.00000025  -0.00000032           -0.18       -0.04       -0.05
  -0.00000025  -0.00000421  -0.00000029           -0.04       -0.62       -0.04
  -0.00000032  -0.00000029  -0.00000051           -0.05       -0.04       -0.08

     Energy error            =      2.0E-03 Ry
     Gradient error          =      2.1E-02 Ry/Bohr

     number of scf cycles    =   4
     number of bfgs steps    =   3

     energy             old  =    -259.4206448777 Ry
     energy             new  =    -259.4226545144 Ry

     CASE: energy            _new < energy            _old

     new trust radius        =       0.0853316876 bohr
     new conv_thr            =       0.0000002010 Ry


ATOMIC_POSITIONS (angstrom)
N             9.5684276005        9.9637997466        9.6187695830
N            11.6778889636        9.6563115512        9.9601083509
C             8.1462843633        9.6872941241        9.3606865081
C            10.5303387223        9.0163855213        9.6412441033
C            10.1056825614       11.2096677142        9.9218825045
C            11.4456669867       11.0182159870       10.1298760812
C             7.3764601712        9.3875377281       10.6500181908
C            12.9858457849        9.0081934799       10.0912966009
H             7.7446153461       10.5744888884        8.8415264616
H             8.1205057163        8.8312213286        8.6687918902
H            10.4049552720        7.8647033640        9.5275700637
H             9.4838624601       12.1075519639        9.9438750147
H            12.2575213261       11.7109086932       10.3620553149
H             7.8004223429        8.4997895965       11.1432317470
H             6.3294024414        9.1805443156       10.3922888642
H             7.4085297866       10.2485466031       11.3344715445
H            12.8497444280        7.9322654841        9.9106627635
H            13.6816042177        9.4440382092        9.3561043964
H            13.3720884432        9.1716268549       11.1096909082
Cl           10.2850530658        5.8923088460        9.7926991084



     Writing config-only to output data dir ./plusCL2.save/
     NEW-OLD atomic charge density approx. for the potential

     negative rho (up, down):  8.770E-04 0.000E+00

     total cpu time spent up to now is     1953.4 secs

     Self-consistent Calculation

     iteration #  1     ecut=    60.00 Ry     beta= 0.70
     Davidson diagonalization with overlap
     ethr =  1.00E-06,  avg # of iterations =  7.0

     negative rho (up, down):  8.737E-04 0.000E+00

     total cpu time spent up to now is     2008.0 secs

     total energy              =    -259.42446081 Ry
     estimated scf accuracy    <       0.00101103 Ry

     iteration #  2     ecut=    60.00 Ry     beta= 0.70
     Davidson diagonalization with overlap
     ethr =  1.94E-06,  avg # of iterations =  4.0

     negative rho (up, down):  8.808E-04 0.000E+00

     total cpu time spent up to now is     2056.7 secs

     total energy              =    -259.42465394 Ry
     estimated scf accuracy    <       0.00049872 Ry

     iteration #  3     ecut=    60.00 Ry     beta= 0.70
     Davidson diagonalization with overlap
     ethr =  9.59E-07,  avg # of iterations =  3.0

     negative rho (up, down):  8.802E-04 0.000E+00

     total cpu time spent up to now is     2105.4 secs

     total energy              =    -259.42477318 Ry
     estimated scf accuracy    <       0.00002487 Ry

     iteration #  4     ecut=    60.00 Ry     beta= 0.70
     Davidson diagonalization with overlap
     ethr =  4.78E-08,  avg # of iterations =  3.0

     negative rho (up, down):  8.803E-04 0.000E+00

     total cpu time spent up to now is     2155.1 secs

     total energy              =    -259.42478018 Ry
     estimated scf accuracy    <       0.00000580 Ry

     iteration #  5     ecut=    60.00 Ry     beta= 0.70
     Davidson diagonalization with overlap
     ethr =  1.11E-08,  avg # of iterations =  2.0

     negative rho (up, down):  8.805E-04 0.000E+00

     total cpu time spent up to now is     2203.9 secs

     total energy              =    -259.42478120 Ry
     estimated scf accuracy    <       0.00000072 Ry

     iteration #  6     ecut=    60.00 Ry     beta= 0.70
     Davidson diagonalization with overlap
     ethr =  1.38E-09,  avg # of iterations =  3.0

     negative rho (up, down):  8.805E-04 0.000E+00

     total cpu time spent up to now is     2252.3 secs

     End of self-consistent calculation

          k = 0.0000 0.0000 0.0000 (423701 PWs)   bands (ev):

   -27.2459 -24.3130 -20.6090 -19.7043 -18.6137 -16.9037 -16.1602 -16.0132
   -15.2485 -14.0796 -12.8193 -12.4542 -12.1039 -11.9294 -11.3286 -11.2388
   -11.1120 -10.3826 -10.0393  -9.6898  -9.1703  -7.9543  -7.1373  -4.3382
    -4.1762  -4.1400  -1.8289  -1.5894  -0.9438  -0.6450  -0.3007

     the Fermi energy is    -2.9798 ev

!    total energy              =    -259.42478137 Ry
     total all-electron energy =     -1612.275499 Ry
     estimated scf accuracy    <       0.00000007 Ry
     smearing contrib. (-TS)   =       0.00000001 Ry
     internal energy E=F+TS    =    -259.42478138 Ry

     The total energy is F=E-TS. E is the sum of the following terms:
     one-electron contribution =    -795.79784545 Ry
     hartree contribution      =     403.60375471 Ry
     xc contribution           =     -57.77278199 Ry
     ewald contribution        =     288.91937567 Ry
     one-center paw contrib.   =     -98.37728432 Ry

     convergence has been achieved in   6 iterations

     negative rho (up, down):  8.805E-04 0.000E+00

     Forces acting on atoms (cartesian axes, Ry/au):

     atom    1 type  1   force =    -0.00075742    0.00008817   -0.00058273
     atom    2 type  1   force =     0.00342214    0.00165726   -0.00101637
     atom    3 type  2   force =    -0.00198100    0.00002491   -0.00043949
     atom    4 type  2   force =     0.00608582    0.00417908    0.00213706
     atom    5 type  2   force =    -0.00051083   -0.00058141   -0.00137280
     atom    6 type  2   force =    -0.00143528   -0.00452988   -0.00040148
     atom    7 type  2   force =     0.00513284   -0.00001618   -0.00851470
[...]
C             7.3871018516        9.3738206681       10.6461216873
C            12.9649419286        8.9775486993       10.0894454830
H             7.7189667064       10.5240320183        8.8186274385
H             8.1406687038        8.7975890487        8.6948341790
H            10.4190347264        7.9068958671        9.5442771996
H             9.5084684641       12.1245429553        9.9442501244
H            12.2271420933       11.7348599478       10.3859583547
H             7.7969230513        8.4832730811       11.1409914579
H             6.3348605959        9.1734552708       10.4009021940
H             7.4188162844       10.2232099080       11.3431468320
H            12.7705970216        7.9098626531        9.9261445730
H            13.6829789674        9.3522860913        9.3494106431
H            13.3648313578        9.1271544407       11.0997479317
Cl           10.3348055590        6.0524994388        9.7850393726



     Writing config-only to output data dir ./plusCL2.save/
     NEW-OLD atomic charge density approx. for the potential

     negative rho (up, down):  8.901E-04 0.000E+00

     total cpu time spent up to now is     9723.9 secs

     Self-consistent Calculation

     iteration #  1     ecut=    60.00 Ry     beta= 0.70
     Davidson diagonalization with overlap
     ethr =  1.00E-06,  avg # of iterations =  4.0

     Threshold (ethr) on eigenvalues was too large:
     Diagonalizing with lowered threshold

     Davidson diagonalization with overlap
     ethr =  8.76E-09,  avg # of iterations =  3.0

     negative rho (up, down):  8.901E-04 0.000E+00

     total cpu time spent up to now is     9804.9 secs

     total energy              =    -259.42930247 Ry
     estimated scf accuracy    <       0.00000656 Ry

     iteration #  2     ecut=    60.00 Ry     beta= 0.70
     Davidson diagonalization with overlap
     ethr =  1.26E-08,  avg # of iterations =  2.0

     negative rho (up, down):  8.902E-04 0.000E+00

     total cpu time spent up to now is     9853.5 secs

     total energy              =    -259.42930295 Ry
     estimated scf accuracy    <       0.00000134 Ry

     iteration #  3     ecut=    60.00 Ry     beta= 0.70
     Davidson diagonalization with overlap
     ethr =  2.58E-09,  avg # of iterations =  2.0

     negative rho (up, down):  8.901E-04 0.000E+00

     total cpu time spent up to now is     9894.4 secs

     total energy              =    -259.42930321 Ry
     estimated scf accuracy    <       0.00000096 Ry

     iteration #  4     ecut=    60.00 Ry     beta= 0.70
     Davidson diagonalization with overlap
     ethr =  1.85E-09,  avg # of iterations =  2.0

     negative rho (up, down):  8.901E-04 0.000E+00

     total cpu time spent up to now is     9935.8 secs

     total energy              =    -259.42930341 Ry
     estimated scf accuracy    <       0.00000005 Ry

     iteration #  5     ecut=    60.00 Ry     beta= 0.70
     Davidson diagonalization with overlap
     ethr =  1.03E-10,  avg # of iterations =  2.0

     negative rho (up, down):  8.902E-04 0.000E+00

     total cpu time spent up to now is     9982.6 secs

     End of self-consistent calculation

          k = 0.0000 0.0000 0.0000 (423701 PWs)   bands (ev):

   -27.1808 -24.2384 -20.5601 -19.5690 -18.5558 -16.8608 -16.2872 -16.0310
   -15.1921 -14.0350 -12.7406 -12.3848 -12.0600 -11.8237 -11.2490 -11.1337
   -10.9807 -10.2587  -9.9915  -9.6129  -9.0779  -7.8949  -7.0037  -4.4494
    -4.3738  -4.3278  -1.6506  -1.4490  -0.8763  -0.5798  -0.2605

     the Fermi energy is    -2.9752 ev

!    total energy              =    -259.42930342 Ry
     total all-electron energy =     -1612.280021 Ry
     estimated scf accuracy    <          3.4E-09 Ry
     smearing contrib. (-TS)   =       0.00000000 Ry
     internal energy E=F+TS    =    -259.42930342 Ry

     The total energy is F=E-TS. E is the sum of the following terms:
     one-electron contribution =    -802.69449105 Ry
     hartree contribution      =     407.18828719 Ry
     xc contribution           =     -57.86507216 Ry
     ewald contribution        =     292.32214247 Ry
     one-center paw contrib.   =     -98.38016987 Ry

     convergence has been achieved in   5 iterations

     negative rho (up, down):  8.902E-04 0.000E+00

     Forces acting on atoms (cartesian axes, Ry/au):

     atom    1 type  1   force =    -0.00064142    0.00059387   -0.00008621
     atom    2 type  1   force =    -0.00013459   -0.00022670   -0.00001564
     atom    3 type  2   force =    -0.00044176   -0.00022511    0.00077405
     atom    4 type  2   force =    -0.00068318   -0.00040754    0.00011051
     atom    5 type  2   force =     0.00094731   -0.00046059    0.00023545
     atom    6 type  2   force =    -0.00072584    0.00033260   -0.00008943
     atom    7 type  2   force =     0.00006029    0.00001311   -0.00097126
     atom    8 type  2   force =    -0.00060987    0.00001370    0.00005076
     atom    9 type  3   force =     0.00054966   -0.00061586   -0.00005595
     atom   10 type  3   force =    -0.00080118    0.00062975    0.00006864
     atom   11 type  3   force =     0.00000184   -0.00041141   -0.00054292
     atom   12 type  3   force =    -0.00001845    0.00091248    0.00054713
     atom   13 type  3   force =     0.00063086    0.00081955    0.00014700
     atom   14 type  3   force =     0.00039230    0.00086193   -0.00037032
     atom   15 type  3   force =     0.00099660    0.00004715    0.00049644
     atom   16 type  3   force =     0.00033747   -0.00084941   -0.00072823
     atom   17 type  3   force =     0.00055688   -0.00035893    0.00048439
     atom   18 type  3   force =    -0.00062693   -0.00051209   -0.00008245
     atom   19 type  3   force =    -0.00055212    0.00027172   -0.00021883
     atom   20 type  4   force =     0.00076213   -0.00042818    0.00024688
     The non-local contrib.  to forces
     atom    1 type  1   force =     0.20167239    0.02332699    0.07925987
     atom    2 type  1   force =    -0.14772757    0.06877161   -0.02622614
     atom    3 type  2   force =     0.41388899    0.13452644    0.11670169
     atom    4 type  2   force =     0.07950550    0.74400474    0.15382250
     atom    5 type  2   force =    -0.16705551   -0.29566525   -0.08490700
     atom    6 type  2   force =     0.09518910   -0.33456071   -0.04406580
     atom    7 type  2   force =     0.02985299    0.06291491   -0.10400403
     atom    8 type  2   force =    -0.36944821    0.29991192   -0.03199872
     atom    9 type  3   force =     0.03134721   -0.05789927    0.03818814
     atom   10 type  3   force =     0.00181559    0.06248830    0.04701997
     atom   11 type  3   force =     0.00653721    0.06132071    0.00447731
     atom   12 type  3   force =     0.04376124   -0.06755535   -0.00237686
     atom   13 type  3   force =    -0.05759266   -0.05308417   -0.01901002
     atom   14 type  3   force =    -0.02756020    0.06179046   -0.03424876
     atom   15 type  3   force =     0.07113501    0.01415237    0.01533329
     atom   16 type  3   force =    -0.00136438   -0.05611541   -0.04779862
     atom   17 type  3   force =     0.01331361    0.07727368    0.01118202
     atom   18 type  3   force =    -0.05072775   -0.02459052    0.05133449
     atom   19 type  3   force =    -0.02866055   -0.00875805   -0.07032087
     atom   20 type  4   force =     0.00635858    0.06276628   -0.00569989
     The ionic contribution  to forces
     atom    1 type  1   force =    -5.16204581    1.70663935   -2.63329311
     atom    2 type  1   force =     7.66396788   -0.52590626    0.69229109
     atom    3 type  2   force =    -6.89504749   -0.07766941   -4.09459192
     atom    4 type  2   force =    -0.02676785   -7.81199776   -2.56714667
     atom    5 type  2   force =    -2.21750334   10.56496790    0.74332994
     atom    6 type  2   force =     5.71284637    9.12220964    2.24842168
     atom    7 type  2   force =    -6.21622200   -0.96659335    4.02715953
     atom    8 type  2   force =     8.49097534   -2.95443169    0.85004922
     atom    9 type  3   force =    -2.18322043    2.25937250   -2.06937543
     atom   10 type  3   force =    -1.25341658   -2.26253422   -2.50429231
     atom   11 type  3   force =    -0.16203438   -2.41519325   -0.58376358
     atom   12 type  3   force =    -1.53712841    3.53509113    0.14424508
     atom   13 type  3   force =     2.47758227    2.82666027    0.86302405
     atom   14 type  3   force =    -0.30962831   -2.35279076    1.98509780
     atom   15 type  3   force =    -3.36298425   -0.58550472   -0.10294886
     atom   16 type  3   force =    -1.11207892    1.94516723    2.40979582
     atom   17 type  3   force =     1.12856552   -3.01182877   -0.26582721
     atom   18 type  3   force =     2.98234059    0.55133116   -1.83303349
     atom   19 type  3   force =     2.20052596   -0.02921446    2.75688610
     atom   20 type  4   force =    -0.21872615   -9.51777454   -0.06602773
     The local contribution  to forces
     atom    1 type  1   force =     4.95995331   -1.72839187    2.55465336
     atom    2 type  1   force =    -7.51552860    0.45769582   -0.66598647
     atom    3 type  2   force =     6.48840821   -0.05465122    3.98204281
     atom    4 type  2   force =    -0.05265261    7.07545538    2.41483557
     atom    5 type  2   force =     2.38001156  -10.27242206   -0.65964228
     atom    6 type  2   force =    -5.80404289   -8.79140299   -2.20432100
     atom    7 type  2   force =     6.18736704    0.90495263   -3.92635625
     atom    8 type  2   force =    -8.12930276    2.66025566   -0.81867786
     atom    9 type  3   force =     2.15242588   -2.20209154    2.03113448
     atom   10 type  3   force =     1.25079890    2.20067664    2.45734302
     atom   11 type  3   force =     0.15550157    2.35344671    0.57874328
     atom   12 type  3   force =     1.49335310   -3.46662819   -0.14132083
     atom   13 type  3   force =    -2.41935835   -2.77275895   -0.84386779
     atom   14 type  3   force =     0.33758151    2.29186503   -1.95122143
     atom   15 type  3   force =     3.29285289    0.57139893    0.08811190
     atom   16 type  3   force =     1.11378494   -1.88990557   -2.36272992
     atom   17 type  3   force =    -1.14131577    2.93419525    0.25513095
     atom   18 type  3   force =    -2.93223632   -0.52725615    1.78161803
     atom   19 type  3   force =    -2.17241392    0.03824152   -2.68678644
     atom   20 type  4   force =     0.21332981    9.45558714    0.07194537
     The core correction contribution to forces
     atom    1 type  1   force =    -0.00027195   -0.00092109   -0.00068918
     atom    2 type  1   force =    -0.00079045   -0.00075717   -0.00007021
     atom    3 type  2   force =    -0.00770187   -0.00241907   -0.00335890
     atom    4 type  2   force =    -0.00076351   -0.00785562   -0.00138844
     atom    5 type  2   force =     0.00549678    0.00267170    0.00146432
     atom    6 type  2   force =    -0.00471894    0.00410661   -0.00011728
     atom    7 type  2   force =    -0.00092533   -0.00125210    0.00222627
     atom    8 type  2   force =     0.00718145   -0.00572803    0.00068448
     atom    9 type  3   force =     0.00000000    0.00000000    0.00000000
     atom   10 type  3   force =     0.00000000    0.00000000    0.00000000
     atom   11 type  3   force =     0.00000000    0.00000000    0.00000000
     atom   12 type  3   force =     0.00000000    0.00000000    0.00000000
     atom   13 type  3   force =     0.00000000    0.00000000    0.00000000
     atom   14 type  3   force =     0.00000000    0.00000000    0.00000000
     atom   15 type  3   force =     0.00000000    0.00000000    0.00000000
     atom   16 type  3   force =     0.00000000    0.00000000    0.00000000
     atom   17 type  3   force =     0.00000000    0.00000000    0.00000000
     atom   18 type  3   force =     0.00000000    0.00000000    0.00000000
     atom   19 type  3   force =     0.00000000    0.00000000    0.00000000
     atom   20 type  4   force =    -0.00017537   -0.00104700    0.00003887
     The Hubbard contrib.    to forces
     atom    1 type  1   force =     0.00000000    0.00000000    0.00000000
     atom    2 type  1   force =     0.00000000    0.00000000    0.00000000
     atom    3 type  2   force =     0.00000000    0.00000000    0.00000000
     atom    4 type  2   force =     0.00000000    0.00000000    0.00000000
     atom    5 type  2   force =     0.00000000    0.00000000    0.00000000
     atom    6 type  2   force =     0.00000000    0.00000000    0.00000000
     atom    7 type  2   force =     0.00000000    0.00000000    0.00000000
     atom    8 type  2   force =     0.00000000    0.00000000    0.00000000
     atom    9 type  3   force =     0.00000000    0.00000000    0.00000000
     atom   10 type  3   force =     0.00000000    0.00000000    0.00000000
     atom   11 type  3   force =     0.00000000    0.00000000    0.00000000
     atom   12 type  3   force =     0.00000000    0.00000000    0.00000000
     atom   13 type  3   force =     0.00000000    0.00000000    0.00000000
     atom   14 type  3   force =     0.00000000    0.00000000    0.00000000
     atom   15 type  3   force =     0.00000000    0.00000000    0.00000000
     atom   16 type  3   force =     0.00000000    0.00000000    0.00000000
     atom   17 type  3   force =     0.00000000    0.00000000    0.00000000
     atom   18 type  3   force =     0.00000000    0.00000000    0.00000000
     atom   19 type  3   force =     0.00000000    0.00000000    0.00000000
     atom   20 type  4   force =     0.00000000    0.00000000    0.00000000
     The SCF correction term to forces
     atom    1 type  1   force =     0.00005314   -0.00006208   -0.00001802
     atom    2 type  1   force =    -0.00005335   -0.00003328   -0.00002477
     atom    3 type  2   force =     0.00001291   -0.00001442   -0.00002050
     atom    4 type  2   force =    -0.00000220   -0.00001685   -0.00001330
     atom    5 type  2   force =     0.00000034   -0.00001545   -0.00001038
     atom    6 type  2   force =     0.00000303   -0.00002253   -0.00000790
     atom    7 type  2   force =    -0.00000989   -0.00001154    0.00000236
     atom    8 type  2   force =    -0.00001318    0.00000326   -0.00000722
     atom    9 type  3   force =    -0.00000049   -0.00000011   -0.00000400
     atom   10 type  3   force =     0.00000342   -0.00000355   -0.00000290
     atom   11 type  3   force =    -0.00000005    0.00001184   -0.00000080
     atom   12 type  3   force =    -0.00000186    0.00000232   -0.00000113
     atom   13 type  3   force =     0.00000211   -0.00000017   -0.00000010
     atom   14 type  3   force =     0.00000182   -0.00000537    0.00000121
     atom   15 type  3   force =    -0.00000453   -0.00000200   -0.00000075
     atom   16 type  3   force =    -0.00000166    0.00000176    0.00000363
     atom   17 type  3   force =    -0.00000398   -0.00000167   -0.00000224
     atom   18 type  3   force =    -0.00000094    0.00000085   -0.00000235
     atom   19 type  3   force =    -0.00000110    0.00000014    0.00000151
     atom   20 type  4   force =    -0.00002223    0.00003737   -0.00001059

     Total force =     0.004013     Total SCF correction =     0.000129


     Computing stress (Cartesian axis) and pressure


     negative rho (up, down):  8.902E-04 0.000E+00
          total   stress  (Ry/bohr**3)                   (kbar)     P=       -0.04
  -0.00000045  -0.00000002   0.00000008           -0.07       -0.00        0.01
  -0.00000002  -0.00000014   0.00000004           -0.00       -0.02        0.01
   0.00000008   0.00000004  -0.00000024            0.01        0.01       -0.04

     Energy error            =      2.3E-05 Ry
     Gradient error          =      1.0E-03 Ry/Bohr

     bfgs converged in  22 scf cycles and  21 bfgs steps
     (criteria: energy <  1.0E-04 Ry, force <  1.0E-03 Ry/Bohr)

     End of BFGS Geometry Optimization

     Final energy             =    -259.4293034232 Ry

     File ./plusCL2.bfgs deleted, as requested
Begin final coordinates

ATOMIC_POSITIONS (angstrom)
N             9.5706068579        9.9841794410        9.6043467976
N            11.6876686721        9.6793594897        9.9507946620
C             8.1519812069        9.6709748859        9.3590837990
C            10.5418533014        9.0532483711        9.6269393735
C            10.1083809266       11.2240367308        9.9155681045
C            11.4442717236       11.0325709930       10.1312197928
C             7.3871018516        9.3738206681       10.6461216873
C            12.9649419286        8.9775486993       10.0894454830
H             7.7189667064       10.5240320183        8.8186274385
H             8.1406687038        8.7975890487        8.6948341790
H            10.4190347264        7.9068958671        9.5442771996
H             9.5084684641       12.1245429553        9.9442501244
H            12.2271420933       11.7348599478       10.3859583547
H             7.7969230513        8.4832730811       11.1409914579
H             6.3348605959        9.1734552708       10.4009021940
H             7.4188162844       10.2232099080       11.3431468320
H            12.7705970216        7.9098626531        9.9261445730
H            13.6829789674        9.3522860913        9.3494106431
H            13.3648313578        9.1271544407       11.0997479317
Cl           10.3348055590        6.0524994388        9.7850393726
End final coordinates



     Writing all to output data dir ./plusCL2.save/

     init_run     :     46.54s CPU     48.67s WALL (       1 calls)
     electrons    :   6424.22s CPU   6869.21s WALL (      22 calls)
     update_pot   :    189.96s CPU    193.33s WALL (      21 calls)
     forces       :    600.45s CPU    632.59s WALL (      22 calls)
     stress       :   1955.24s CPU   2038.64s WALL (      22 calls)

     Called by init_run:
     wfcinit      :      3.16s CPU      3.28s WALL (       1 calls)
     potinit      :      5.55s CPU      5.92s WALL (       1 calls)
     hinit0       :      3.79s CPU      3.96s WALL (       1 calls)

     Called by electrons:
     c_bands      :    880.91s CPU    892.02s WALL (     144 calls)
     sum_band     :   3113.00s CPU   3335.54s WALL (     144 calls)
     v_of_rho     :    506.83s CPU    525.72s WALL (     158 calls)
     newd         :   2088.01s CPU   2257.33s WALL (     158 calls)
     PAW_pot      :     40.86s CPU     41.64s WALL (     179 calls)
     mix_rho      :     84.88s CPU     85.71s WALL (     144 calls)

     Called by c_bands:
     init_us_2    :     10.16s CPU     10.35s WALL (     310 calls)
     init_us_2:cp :     10.15s CPU     10.34s WALL (     310 calls)
     cegterg      :    862.65s CPU    873.37s WALL (     144 calls)

     Called by *egterg:
     cdiaghg      :      0.90s CPU      0.95s WALL (     547 calls)
     h_psi        :    754.11s CPU    763.76s WALL (     577 calls)
     s_psi        :     23.84s CPU     24.03s WALL (     577 calls)
     g_psi        :      2.96s CPU      2.99s WALL (     432 calls)

     Called by h_psi:
     h_psi:calbec :     19.83s CPU     20.00s WALL (     577 calls)
     vloc_psi     :    704.72s CPU    713.93s WALL (     577 calls)
     add_vuspsi   :     23.94s CPU     24.13s WALL (     577 calls)

     General routines
     calbec       :     30.69s CPU     31.00s WALL (     852 calls)
     fft          :    589.84s CPU    601.31s WALL (    2589 calls)
     ffts         :     15.29s CPU     15.68s WALL (     302 calls)
     fftw         :    502.27s CPU    509.32s WALL (   29372 calls)
     interpolate  :     44.55s CPU     45.27s WALL (     158 calls)

     Parallel routines

     PWSCF        :      2h38m CPU      2h48m WALL


   This run was terminated on:  13:47:14  18Jun2025            

=------------------------------------------------------------------------------=
   JOB DONE.
=------------------------------------------------------------------------------=
