22342451
  -OEChem-03242523552D

  9  0  0     0  0  0  0  0  0999 V2000
    4.2320    1.5000    0.0000 Cl  0  5  0  0  0  0  0  0  0  0  0  0
    2.5000    1.5000    0.0000 Cl  0  5  0  0  0  0  0  0  0  0  0  0
    3.3660    0.0000    0.0000 Cl  0  5  0  0  0  0  0  0  0  0  0  0
    4.2320    5.0000    0.0000 Cl  0  5  0  0  0  0  0  0  0  0  0  0
    2.5000    5.0000    0.0000 Cl  0  5  0  0  0  0  0  0  0  0  0  0
    3.3660    3.5000    0.0000 Cl  0  5  0  0  0  0  0  0  0  0  0  0
    0.0000    2.2500    0.0000 Cl  0  5  0  0  0  0  0  0  0  0  0  0
    3.3660    1.0000    0.0000 Al  0  1  0  0  0  0  0  0  0  0  0  0
    3.3660    4.5000    0.0000 Al  0  1  0  0  0  0  0  0  0  0  0  0
M  CHG  8   1  -1   2  -1   3  -1   4  -1   5  -1   6  -1   7  -1   8   3
M  CHG  1   9   3
M  END
> <PUBCHEM_COMPOUND_CID>
22342451

> <PUBCHEM_COMPOUND_CANONICALIZED>
1

> <PUBCHEM_CACTVS_COMPLEXITY>
0

> <PUBCHEM_CACTVS_HBOND_ACCEPTOR>
7

> <PUBCHEM_CACTVS_HBOND_DONOR>
0

> <PUBCHEM_CACTVS_ROTATABLE_BOND>
0

> <PUBCHEM_CACTVS_SUBSKEYS>
AAADcQAAAAAHABAAAAAAAAAAAAAAAAAAAAAAAAAAAAAAAAAAAAAAAAAAAAAAAAAAAAAAAAAAAAAAAAAAAAAAAAAAAAAAAAAAAAAAAAAAAAAAAAAAAAAAAAAAAAAAAAAAAAAAAAAAAAAAAAAAAAAAAAAAAA==

> <PUBCHEM_IUPAC_OPENEYE_NAME>
dialuminum;heptachloride

> <PUBCHEM_IUPAC_CAS_NAME>
dialuminum;heptachloride

> <PUBCHEM_IUPAC_NAME_MARKUP>
dialuminum;heptachloride

> <PUBCHEM_IUPAC_NAME>
dialuminum;heptachloride

> <PUBCHEM_IUPAC_SYSTEMATIC_NAME>
dialuminum;heptachloride

> <PUBCHEM_IUPAC_TRADITIONAL_NAME>
dialuminum;heptachloride

> <PUBCHEM_IUPAC_INCHI>
InChI=1S/2Al.7ClH/h;;7*1H/q2*+3;;;;;;;/p-7

> <PUBCHEM_IUPAC_INCHIKEY>
AYGJLYDIRZKHHB-UHFFFAOYSA-G

> <PUBCHEM_EXACT_MASS>
300.742096

> <PUBCHEM_MOLECULAR_FORMULA>
Al2Cl7-

> <PUBCHEM_MOLECULAR_WEIGHT>
302.1

> <PUBCHEM_SMILES>
[Al+3].[Al+3].[Cl-].[Cl-].[Cl-].[Cl-].[Cl-].[Cl-].[Cl-]

> <PUBCHEM_OPENEYE_CAN_SMILES>
[Al+3].[Al+3].[Cl-].[Cl-].[Cl-].[Cl-].[Cl-].[Cl-].[Cl-]

> <PUBCHEM_OPENEYE_ISO_SMILES>
[Al+3].[Al+3].[Cl-].[Cl-].[Cl-].[Cl-].[Cl-].[Cl-].[Cl-]

> <PUBCHEM_CACTVS_TPSA>
0

> <PUBCHEM_MONOISOTOPIC_WEIGHT>
298.745046

> <PUBCHEM_TOTAL_CHARGE>
-1

> <PUBCHEM_HEAVY_ATOM_COUNT>
9

> <PUBCHEM_ATOM_DEF_STEREO_COUNT>
0

> <PUBCHEM_ATOM_UDEF_STEREO_COUNT>
0

> <PUBCHEM_BOND_DEF_STEREO_COUNT>
0

> <PUBCHEM_BOND_UDEF_STEREO_COUNT>
0

> <PUBCHEM_ISOTOPIC_ATOM_COUNT>
0

> <PUBCHEM_COMPONENT_COUNT>
9

> <PUBCHEM_CACTVS_TAUTO_COUNT>
-1

> <PUBCHEM_COORDINATE_TYPE>
1
5
255

$$$$
