25114082
  -OEChem-03242523462D

  5  0  0     0  0  0  0  0  0999 V2000
    1.7320    1.5000    0.0000 Cl  0  5  0  0  0  0  0  0  0  0  0  0
    0.0000    1.5000    0.0000 Cl  0  5  0  0  0  0  0  0  0  0  0  0
    0.8660    0.0000    0.0000 Cl  0  5  0  0  0  0  0  0  0  0  0  0
    0.6160    3.5000    0.0000 Cl  0  5  0  0  0  0  0  0  0  0  0  0
    0.8660    1.0000    0.0000 Al  0  1  0  0  0  0  0  0  0  0  0  0
M  CHG  5   1  -1   2  -1   3  -1   4  -1   5   3
M  END
> <PUBCHEM_COMPOUND_CID>
25114082

> <PUBCHEM_COMPOUND_CANONICALIZED>
1

> <PUBCHEM_CACTVS_COMPLEXITY>
0

> <PUBCHEM_CACTVS_HBOND_ACCEPTOR>
4

> <PUBCHEM_CACTVS_HBOND_DONOR>
0

> <PUBCHEM_CACTVS_ROTATABLE_BOND>
0

> <PUBCHEM_CACTVS_SUBSKEYS>
AAADcQAAAAAHABAAAAAAAAAAAAAAAAAAAAAAAAAAAAAAAAAAAAAAAAAAAAAAAAAAAAAAAAAAAAAAAAAAAAAAAAAAAAAAAAAAAAAAAAAAAAAAAAAAAAAAAAAAAAAAAAAAAAAAAAAAAAAAAAAAAAAAAAAAAA==

> <PUBCHEM_IUPAC_OPENEYE_NAME>
aluminum;tetrachloride

> <PUBCHEM_IUPAC_CAS_NAME>
aluminum;tetrachloride

> <PUBCHEM_IUPAC_NAME_MARKUP>
aluminum;tetrachloride

> <PUBCHEM_IUPAC_NAME>
aluminum;tetrachloride

> <PUBCHEM_IUPAC_SYSTEMATIC_NAME>
aluminum;tetrachloride

> <PUBCHEM_IUPAC_TRADITIONAL_NAME>
aluminum;tetrachloride

> <PUBCHEM_IUPAC_INCHI>
InChI=1S/Al.4ClH/h;4*1H/q+3;;;;/p-4

> <PUBCHEM_IUPAC_INCHIKEY>
BXILREUWHCQFES-UHFFFAOYSA-J

> <PUBCHEM_EXACT_MASS>
168.853999

> <PUBCHEM_MOLECULAR_FORMULA>
AlCl4-

> <PUBCHEM_MOLECULAR_WEIGHT>
168.8

> <PUBCHEM_SMILES>
[Al+3].[Cl-].[Cl-].[Cl-].[Cl-]

> <PUBCHEM_OPENEYE_CAN_SMILES>
[Al+3].[Cl-].[Cl-].[Cl-].[Cl-]

> <PUBCHEM_OPENEYE_ISO_SMILES>
[Al+3].[Cl-].[Cl-].[Cl-].[Cl-]

> <PUBCHEM_CACTVS_TPSA>
0

> <PUBCHEM_MONOISOTOPIC_WEIGHT>
166.856949

> <PUBCHEM_TOTAL_CHARGE>
-1

> <PUBCHEM_HEAVY_ATOM_COUNT>
5

> <PUBCHEM_ATOM_DEF_STEREO_COUNT>
0

> <PUBCHEM_ATOM_UDEF_STEREO_COUNT>
0

> <PUBCHEM_BOND_DEF_STEREO_COUNT>
0

> <PUBCHEM_BOND_UDEF_STEREO_COUNT>
0

> <PUBCHEM_ISOTOPIC_ATOM_COUNT>
0

> <PUBCHEM_COMPONENT_COUNT>
5

> <PUBCHEM_CACTVS_TAUTO_COUNT>
-1

> <PUBCHEM_COORDINATE_TYPE>
1
5
255

$$$$
