
     Program PWSCF v.7.3.1 starts on  8Aug2025 at 18:59: 9 

     This program is part of the open-source Quantum ESPRESSO suite
     for quantum simulation of materials; please cite
         "P. Giannozzi et al., J. Phys.:Condens. Matter 21 395502 (2009);
         "P. Giannozzi et al., J. Phys.:Condens. Matter 29 465901 (2017);
         "P. Giannozzi et al., J. Chem. Phys. 152 154105 (2020);
          URL http://www.quantum-espresso.org", 
     in publications or presentations arising from this work. More details at
     http://www.quantum-espresso.org/quote

     Parallel version (MPI & OpenMP), running on      64 processor cores
     Number of MPI processes:                 4
     Threads/MPI process:                    16

     MPI processes distributed on     1 nodes
     787565 MiB available memory on the printing compute node when the environment starts
 
     Reading input from pw.in
Warning: card &CELL ignored
Warning: card / ignored

     Current dimensions of program PWSCF are:
     Max number of different atomic species (ntypx) = 10
     Max number of k-points (npk) =  40000
     Max angular momentum in pseudopotentials (lmaxx) =  4
     file C.pbe-n-kjpaw_psl.1.0.0.UPF: wavefunction(s)  2S 2P renormalized
     file Al.pbe-n-kjpaw_psl.1.0.0.UPF: wavefunction(s)  3S 3P renormalized
     file Cl.pbe-n-kjpaw_psl.1.0.0.UPF: wavefunction(s)  3S 3P renormalized
 
     R & G space division:  proc/nbgrp/npool/nimage =       4
     Subspace diagonalization in iterative solution of the eigenvalue problem:
     a serial algorithm will be used

 
     Parallelization info
     --------------------
     sticks:   dense  smooth     PW     G-vecs:    dense   smooth      PW
     Min       57945   32210   8062              7345286  3043328  380487
     Max       57949   32212   8063              7345287  3043329  380488
     Sum      231789  128845  32249             29381147 12173313 1521951
 
     Using Slab Decomposition
 


     bravais-lattice index     =            0
     lattice parameter (alat)  =      94.4863  a.u.
     unit-cell volume          =  295239.6341 (a.u.)^3
     number of atoms/cell      =          197
     number of atomic types    =            3
     number of electrons       =       799.00
     number of Kohn-Sham states=          480
     kinetic-energy cutoff     =      45.3312  Ry
     charge density cutoff     =     326.2606  Ry
     scf convergence threshold =      1.0E-05
     mixing beta               =       0.1000
     number of iterations used =           12  plain     mixing
     energy convergence thresh.=      1.0E-04
     force convergence thresh. =      1.0E-03
     Exchange-correlation= SLA  PW   PBX  PBC
                           (   1   4   3   4   0   0   0)
     nstep                     =          200


     GPU acceleration is ACTIVE.  4 visible GPUs per MPI rank
     GPU-aware MPI enabled


     celldm(1)=  94.486306  celldm(2)=   0.000000  celldm(3)=   0.000000
     celldm(4)=   0.000000  celldm(5)=   0.000000  celldm(6)=   0.000000

     crystal axes: (cart. coord. in units of alat)
               a(1) = (   1.000000   0.000000   0.000000 )  
               a(2) = (   0.000000   1.000000   0.000000 )  
               a(3) = (   0.000000   0.000000   0.350000 )  

     reciprocal axes: (cart. coord. in units 2 pi/alat)
               b(1) = (  1.000000  0.000000  0.000000 )  
               b(2) = (  0.000000  1.000000  0.000000 )  
               b(3) = (  0.000000  0.000000  2.857143 )  


     PseudoPot. # 1 for C  read from file:
     /home/elmer.barquero/carbon_nn/pseudo/C.pbe-n-kjpaw_psl.1.0.0.UPF
     MD5 check sum: 5f16ad9a65e90284d1d834d4ab3b0f7d
     Pseudo is Projector augmented-wave + core cor, Zval =  4.0
     Generated using &quot;atomic&quot; code by A. Dal Corso  v.6.3
     Shape of augmentation charge: PSQ
     Using radial grid of 1073 points,  4 beta functions with: 
                l(1) =   0
                l(2) =   0
                l(3) =   1
                l(4) =   1
     Q(r) pseudized with 0 coefficients 


     PseudoPot. # 2 for Al read from file:
     /home/elmer.barquero/carbon_nn/pseudo/Al.pbe-n-kjpaw_psl.1.0.0.UPF
     MD5 check sum: 502b6b27b9c6270cab5dd1084b96fa6d
     Pseudo is Projector augmented-wave + core cor, Zval =  3.0
     Generated using &quot;atomic&quot; code by A. Dal Corso  v.6.3
     Shape of augmentation charge: PSQ
     Using radial grid of 1135 points,  6 beta functions with: 
                l(1) =   0
                l(2) =   0
                l(3) =   1
                l(4) =   1
                l(5) =   2
                l(6) =   2
     Q(r) pseudized with 0 coefficients 


     PseudoPot. # 3 for Cl read from file:
     /home/elmer.barquero/carbon_nn/pseudo/Cl.pbe-n-kjpaw_psl.1.0.0.UPF
     MD5 check sum: 530da96d25dcb7781b0586ca00827062
     Pseudo is Projector augmented-wave + core cor, Zval =  7.0
     Generated using &quot;atomic&quot; code by A. Dal Corso  v.6.3
     Shape of augmentation charge: PSQ
     Using radial grid of 1157 points,  6 beta functions with: 
                l(1) =   0
                l(2) =   0
                l(3) =   1
                l(4) =   1
                l(5) =   2
                l(6) =   2
     Q(r) pseudized with 0 coefficients 


     atomic species   valence    mass     pseudopotential
     C                 4.00    12.01100     C ( 1.00)
     Al                3.00    26.98154     Al( 1.00)
     Cl                7.00    35.45000     Cl( 1.00)

     No symmetry found



   Cartesian axes

     site n.     atom                  positions (alat units)
         1        C      tau(   1) = (   0.6166860   0.4384695   0.0187519  )
         2        C      tau(   2) = (   0.6003894   0.5132267   0.1430859  )
         3        C      tau(   3) = (   0.5446482   0.5775385   0.0003594  )
         4        C      tau(   4) = (   0.4636858   0.6013250   0.0003423  )
         5        C      tau(   5) = (   0.3833236   0.5760316   0.0002793  )
         6        C      tau(   6) = (   0.3381571   0.5054522   0.0002625  )
         7        C      tau(   7) = (   0.3502194   0.4222491   0.0002434  )
         8        C      tau(   8) = (   0.4072388   0.3596472   0.0002361  )
         9        C      tau(   9) = (   0.4861825   0.3283813   0.0002169  )
        10        C      tau(  10) = (   0.5710002   0.3324763   0.0001877  )
        11        C      tau(  11) = (   0.6449573   0.3736088   0.0001728  )
        12        C      tau(  12) = (   0.6854474   0.4474079   0.0001397  )
        13        C      tau(  13) = (   0.6799082   0.5318598   0.0001301  )
        14        C      tau(  14) = (   0.6511548   0.6122100   0.0001070  )
        15        C      tau(  15) = (   0.6188216   0.6911619   0.0001761  )
        16        C      tau(  16) = (   0.5769448   0.7753584   0.1416209  )
        17        C      tau(  17) = (   0.6146234   0.4589080   0.0039973  )
        18        C      tau(  18) = (   0.5877517   0.5347418   0.1443408  )
        19        C      tau(  19) = (   0.5192575   0.5904013   0.0003588  )
        20        C      tau(  20) = (   0.4352926   0.5986431   0.0003122  )
        21        C      tau(  21) = (   0.3626303   0.5564385   0.0002741  )
        22        C      tau(  22) = (   0.3358251   0.4770575   0.0002487  )
        23        C      tau(  23) = (   0.3654956   0.3981938   0.0002438  )
        24        C      tau(  24) = (   0.4319718   0.3455063   0.0002297  )
        25        C      tau(  25) = (   0.5145516   0.3257077   0.0002059  )
        26        C      tau(  26) = (   0.5978247   0.3420628   0.0001800  )
        27        C      tau(  27) = (   0.6634197   0.3952844   0.0001664  )
        28        C      tau(  28) = (   0.6882050   0.4757249   0.0001313  )
        29        C      tau(  29) = (   0.6714436   0.5590231   0.0001217  )
        30        C      tau(  30) = (   0.6405062   0.6386059   0.0001037  )
        31        C      tau(  31) = (   0.6069723   0.7170599   0.0002286  )
        32        C      tau(  32) = (   0.5636170   0.7967669   0.1403178  )
        33        C      tau(  33) = (   0.6145178   0.4840465   0.0196082  )
        34        C      tau(  34) = (   0.5806158   0.5501521   0.0249475  )
        35        C      tau(  35) = (   0.5064302   0.5968251   0.0239273  )
        36        C      tau(  36) = (   0.4208417   0.5963833   0.0237933  )
        37        C      tau(  37) = (   0.3527317   0.5455320   0.0237028  )
        38        C      tau(  38) = (   0.3357080   0.4623479   0.0236930  )
        39        C      tau(  39) = (   0.3734759   0.3858202   0.0236406  )
        40        C      tau(  40) = (   0.4445093   0.3378608   0.0236469  )
        41        C      tau(  41) = (   0.5291299   0.3241195   0.0236668  )
        42        C      tau(  42) = (   0.6116170   0.3471773   0.0236286  )
        43        C      tau(  43) = (   0.6736384   0.4062584   0.0233507  )
        44        C      tau(  44) = (   0.6901556   0.4900900   0.0235395  )
        45        C      tau(  45) = (   0.6674892   0.5727978   0.0238688  )
        46        C      tau(  46) = (   0.6355115   0.6524418   0.0238171  )
        47        C      tau(  47) = (   0.5995448   0.7325062   0.0219836  )
        48        C      tau(  48) = (   0.5632227   0.7959882   0.0163805  )
        49        C      tau(  49) = (   0.6076625   0.5108999   0.0227663  )
        50        C      tau(  50) = (   0.5586215   0.5672725   0.0220217  )
        51        C      tau(  51) = (   0.4785783   0.6022027   0.0237842  )
        52        C      tau(  52) = (   0.3947874   0.5852454   0.0237354  )
        53        C      tau(  53) = (   0.3404927   0.5199609   0.0237164  )
        54        C      tau(  54) = (   0.3428624   0.4349324   0.0236974  )
        55        C      tau(  55) = (   0.3942247   0.3665525   0.0236321  )
        56        C      tau(  56) = (   0.4715131   0.3293707   0.0236438  )
        57        C      tau(  57) = (   0.5572330   0.3275705   0.0236793  )
        58        C      tau(  58) = (   0.6352160   0.3628223   0.0236390  )
        59        C      tau(  59) = (   0.6847677   0.4323550   0.0232609  )
        60        C      tau(  60) = (   0.6857142   0.5180346   0.0234885  )
        61        C      tau(  61) = (   0.6570387   0.5990399   0.0238614  )
        62        C      tau(  62) = (   0.6249637   0.6785618   0.0239593  )
        63        C      tau(  63) = (   0.5863461   0.7573008   0.0230727  )
        64        C      tau(  64) = (   0.5743614   0.7768209   0.0049758  )
        65        C      tau(  65) = (   0.6227008   0.4435297   0.0467078  )
        66        C      tau(  66) = (   0.6087621   0.5229087   0.0484423  )
        67        C      tau(  67) = (   0.5464120   0.5780329   0.0479359  )
        68        C      tau(  68) = (   0.4636742   0.6028186   0.0484653  )
        69        C      tau(  69) = (   0.3821703   0.5771729   0.0483998  )
        70        C      tau(  70) = (   0.3366089   0.5055059   0.0483884  )
        71        C      tau(  71) = (   0.3484987   0.4210369   0.0483315  )
        72        C      tau(  72) = (   0.4057231   0.3569887   0.0482617  )
        73        C      tau(  73) = (   0.4859202   0.3255618   0.0482999  )
        74        C      tau(  74) = (   0.5718740   0.3304507   0.0483412  )
        75        C      tau(  75) = (   0.6472028   0.3721078   0.0481440  )
        76        C      tau(  76) = (   0.6895898   0.4465314   0.0478760  )
        77        C      tau(  77) = (   0.6830403   0.5323132   0.0483212  )
        78        C      tau(  78) = (   0.6518312   0.6128778   0.0486617  )
        79        C      tau(  79) = (   0.6190517   0.6930780   0.0481065  )
        80        C      tau(  80) = (   0.5807427   0.7688523   0.0484759  )
        81        C      tau(  81) = (   0.6238952   0.4727384   0.0450462  )
        82        C      tau(  82) = (   0.5916588   0.5450370   0.0497106  )
        83        C      tau(  83) = (   0.5210162   0.5912790   0.0481611  )
        84        C      tau(  84) = (   0.4353822   0.6001235   0.0484486  )
        85        C      tau(  85) = (   0.3615176   0.5576615   0.0483749  )
        86        C      tau(  86) = (   0.3342471   0.4771846   0.0483824  )
        87        C      tau(  87) = (   0.3634501   0.3968598   0.0483062  )
        88        C      tau(  88) = (   0.4304022   0.3428798   0.0482688  )
        89        C      tau(  89) = (   0.5142312   0.3230498   0.0483173  )
        90        C      tau(  90) = (   0.5985980   0.3401233   0.0483233  )
        91        C      tau(  91) = (   0.6662468   0.3932692   0.0479891  )
        92        C      tau(  92) = (   0.6922561   0.4748817   0.0479742  )
        93        C      tau(  93) = (   0.6738105   0.5591460   0.0484917  )
        94        C      tau(  94) = (   0.6411228   0.6391133   0.0486495  )
        95        C      tau(  95) = (   0.6071954   0.7190365   0.0475874  )
        96        C      tau(  96) = (   0.5655723   0.7940972   0.0454265  )
        97        C      tau(  97) = (   0.6256685   0.4842436   0.0700191  )
        98        C      tau(  98) = (   0.5816412   0.5552386   0.0742060  )
        99        C      tau(  99) = (   0.5069487   0.5962142   0.0729404  )
       100        C      tau( 100) = (   0.4208408   0.5969557   0.0729994  )
       101        C      tau( 101) = (   0.3524973   0.5458936   0.0729979  )
       102        C      tau( 102) = (   0.3351232   0.4623399   0.0729933  )
       103        C      tau( 103) = (   0.3722683   0.3848439   0.0728845  )
       104        C      tau( 104) = (   0.4435707   0.3359771   0.0728580  )
       105        C      tau( 105) = (   0.5290605   0.3224602   0.0729323  )
       106        C      tau( 106) = (   0.6122606   0.3462441   0.0728696  )
       107        C      tau( 107) = (   0.6750147   0.4054251   0.0724923  )
       108        C      tau( 108) = (   0.6927665   0.4895056   0.0726254  )
       109        C      tau( 109) = (   0.6691013   0.5729431   0.0732109  )
       110        C      tau( 110) = (   0.6355744   0.6532413   0.0731225  )
       111        C      tau( 111) = (   0.6014499   0.7320213   0.0721675  )
       112        C      tau( 112) = (   0.5583467   0.8068018   0.0686637  )
       113        C      tau( 113) = (   0.6163827   0.5103024   0.0725375  )
       114        C      tau( 114) = (   0.5589413   0.5720173   0.0729727  )
       115        C      tau( 115) = (   0.4786549   0.6018538   0.0729683  )
       116        C      tau( 116) = (   0.3943754   0.5856067   0.0730124  )
       117        C      tau( 117) = (   0.3401387   0.5198864   0.0730205  )
       118        C      tau( 118) = (   0.3421552   0.4343942   0.0729694  )
       119        C      tau( 119) = (   0.3931853   0.3649854   0.0728541  )
       120        C      tau( 120) = (   0.4711263   0.3274366   0.0728744  )
       121        C      tau( 121) = (   0.5576498   0.3262504   0.0729491  )
       122        C      tau( 122) = (   0.6364022   0.3620551   0.0727922  )
       123        C      tau( 123) = (   0.6868760   0.4317681   0.0724016  )
       124        C      tau( 124) = (   0.6879394   0.5179210   0.0727659  )
       125        C      tau( 125) = (   0.6579403   0.5994278   0.0732534  )
       126        C      tau( 126) = (   0.6245954   0.6798342   0.0729852  )
       127        C      tau( 127) = (   0.5881833   0.7569404   0.0723984  )
       128        C      tau( 128) = (   0.5433794   0.8296929   0.0786141  )
       129        C      tau( 129) = (   0.6217645   0.4377269   0.0734202  )
       130        C      tau( 130) = (   0.6062265   0.5195415   0.0973088  )
       131        C      tau( 131) = (   0.5466938   0.5795986   0.0980940  )
       132        C      tau( 132) = (   0.4636580   0.6033391   0.0977178  )
       133        C      tau( 133) = (   0.3811238   0.5783182   0.0977142  )
       134        C      tau( 134) = (   0.3352169   0.5055795   0.0977230  )
       135        C      tau( 135) = (   0.3469775   0.4199825   0.0976233  )
       136        C      tau( 136) = (   0.4044639   0.3548043   0.0974945  )
       137        C      tau( 137) = (   0.4856440   0.3231443   0.0975432  )
       138        C      tau( 138) = (   0.5726156   0.3287256   0.0976066  )
       139        C      tau( 139) = (   0.6487314   0.3710412   0.0973720  )
       140        C      tau( 140) = (   0.6919632   0.4459907   0.0970518  )
       141        C      tau( 141) = (   0.6849645   0.5324443   0.0975805  )
       142        C      tau( 142) = (   0.6524076   0.6135088   0.0979307  )
       143        C      tau( 143) = (   0.6187017   0.6938683   0.0977157  )
       144        C      tau( 144) = (   0.5808978   0.7701072   0.0964022  )
       145        C      tau( 145) = (   0.6232467   0.4616920   0.0898790  )
       146        C      tau( 146) = (   0.5902331   0.5430343   0.0986525  )
       147        C      tau( 147) = (   0.5211083   0.5920548   0.0976993  )
       148        C      tau( 148) = (   0.4353624   0.6013418   0.0976636  )
       149        C      tau( 149) = (   0.3605007   0.5587773   0.0976823  )
       150        C      tau( 150) = (   0.3327655   0.4772679   0.0977024  )
       151        C      tau( 151) = (   0.3617004   0.3956655   0.0975744  )
       152        C      tau( 152) = (   0.4291018   0.3406180   0.0974974  )
       153        C      tau( 153) = (   0.5139735   0.3207877   0.0975796  )
       154        C      tau( 154) = (   0.5992977   0.3385529   0.0975810  )
       155        C      tau( 155) = (   0.6676789   0.3922386   0.0972279  )
       156        C      tau( 156) = (   0.6947620   0.4742597   0.0971470  )
       157        C      tau( 157) = (   0.6754053   0.5591111   0.0978154  )
       158        C      tau( 158) = (   0.6414486   0.6395982   0.0979255  )
       159        C      tau( 159) = (   0.6072725   0.7198687   0.0977667  )
       160        C      tau( 160) = (   0.5668965   0.7940014   0.0940716  )
       161        C      tau( 161) = (   0.6168758   0.4746259   0.1123591  )
       162        C      tau( 162) = (   0.5777883   0.5516075   0.1239904  )
       163        C      tau( 163) = (   0.5049034   0.5975131   0.1197309  )
       164        C      tau( 164) = (   0.4182931   0.5976451   0.1195197  )
       165        C      tau( 165) = (   0.3500009   0.5449002   0.1196018  )
       166        C      tau( 166) = (   0.3337525   0.4598706   0.1196223  )
       167        C      tau( 167) = (   0.3720211   0.3816043   0.1194794  )
       168        C      tau( 168) = (   0.4446333   0.3328116   0.1194385  )
       169        C      tau( 169) = (   0.5313267   0.3204471   0.1195434  )
       170        C      tau( 170) = (   0.6151414   0.3458215   0.1194776  )
       171        C      tau( 171) = (   0.6777076   0.4065234   0.1190904  )
       172        C      tau( 172) = (   0.6944923   0.4913651   0.1192967  )
       173        C      tau( 173) = (   0.6693161   0.5749606   0.1200790  )
       174        C      tau( 174) = (   0.6351027   0.6553696   0.1201857  )
       175        C      tau( 175) = (   0.6009189   0.7336899   0.1212760  )
       176        C      tau( 176) = (   0.5565417   0.8091417   0.1166200  )
       177        C      tau( 177) = (   0.6095227   0.5005842   0.1196193  )
       178        C      tau( 178) = (   0.5582446   0.5708172   0.1217538  )
       179        C      tau( 179) = (   0.4805753   0.6024844   0.1199895  )
       180        C      tau( 180) = (   0.3953660   0.5880830   0.1197869  )
       181        C      tau( 181) = (   0.3393547   0.5224391   0.1196916  )
       182        C      tau( 182) = (   0.3397348   0.4357686   0.1195884  )
       183        C      tau( 183) = (   0.3899836   0.3644564   0.1194259  )
       184        C      tau( 184) = (   0.4683790   0.3255016   0.1194478  )
       185        C      tau( 185) = (   0.5559339   0.3238163   0.1195385  )
       186        C      tau( 186) = (   0.6359170   0.3594478   0.1193839  )
       187        C      tau( 187) = (   0.6879278   0.4291677   0.1190496  )
       188        C      tau( 188) = (   0.6901727   0.5157965   0.1194699  )
       189        C      tau( 189) = (   0.6594850   0.5977558   0.1199120  )
       190        C      tau( 190) = (   0.6255036   0.6782530   0.1198340  )
       191        C      tau( 191) = (   0.5873310   0.7579592   0.1222863  )
       192        C      tau( 192) = (   0.5419220   0.8308456   0.1035920  )
       193        Al     tau( 193) = (   0.5369463   0.6741398   0.1545526  )
       194        Cl     tau( 194) = (   0.5539596   0.6739884   0.1148060  )
       195        Cl     tau( 195) = (   0.5411480   0.7136696   0.1726288  )
       196        Cl     tau( 196) = (   0.5590311   0.6460808   0.1790563  )
       197        Cl     tau( 197) = (   0.4949210   0.6652382   0.1525717  )

     --------------------------------------------
     DFT-D3 Dispersion Correction (3-body terms):
     --------------------------------------------
       Reference C6 values for interpolation: 

         atom   Coordination number   C6
         C          0.000            98.23
         C          0.987            86.49
         C          1.998            58.72
         C          2.999            51.56
         C          3.984            36.41
         Al         0.000          1081.08
         Al         0.965           875.51
         Al         1.931           513.50
         Al         2.915           307.19
         Cl         0.000           184.69
         Cl         0.997           180.80

       Values used:

         atom   Coordination number  R0_AB[au]  C6      C8
         C          2.346            2.750     57.07   1650.44
         C          2.194            2.750     58.21   1683.46
         C          2.166            2.750     58.34   1687.28
         C          2.183            2.750     58.26   1685.00
         C          2.186            2.750     58.25   1684.57
         C          2.187            2.750     58.24   1684.40
         C          2.187            2.750     58.24   1684.44
         C          2.186            2.750     58.24   1684.47
         C          2.185            2.750     58.25   1684.66
         C          2.184            2.750     58.25   1684.77
         C          2.189            2.750     58.23   1684.07
         C          2.197            2.750     58.19   1682.96
         C          2.184            2.750     58.25   1684.77
         C          2.175            2.750     58.29   1685.97
         C          2.179            2.750     58.28   1685.51
         C          2.262            2.750     57.80   1671.61
         C          2.296            2.750     57.53   1663.92
         C          2.220            2.750     58.06   1679.31
         C          2.181            2.750     58.27   1685.22
         C          2.183            2.750     58.26   1684.90
         C          2.187            2.750     58.24   1684.41
         C          2.186            2.750     58.25   1684.56
         C          2.186            2.750     58.24   1684.49
         C          2.186            2.750     58.25   1684.57
         C          2.184            2.750     58.25   1684.77
         C          2.185            2.750     58.25   1684.68
         C          2.196            2.750     58.19   1683.09
         C          2.193            2.750     58.21   1683.49
         C          2.180            2.750     58.28   1685.43
         C          2.176            2.750     58.29   1685.92
         C          2.179            2.750     58.28   1685.44
         C          2.180            2.750     58.27   1685.31
         C          3.253            2.750     49.37   1427.78
         C          2.316            2.750     57.36   1658.88
         C          3.245            2.750     49.48   1431.13
         C          3.249            2.750     49.43   1429.57
         C          3.249            2.750     49.43   1429.63
         C          3.249            2.750     49.43   1429.64
         C          3.248            2.750     49.44   1429.86
         C          3.249            2.750     49.43   1429.71
         C          3.248            2.750     49.44   1429.96
         C          3.250            2.750     49.42   1429.21
         C          3.252            2.750     49.38   1428.11
         C          3.254            2.750     49.35   1427.21
         C          3.250            2.750     49.41   1428.89
         C          3.251            2.750     49.39   1428.51
         C          3.181            2.750     50.25   1453.36
         C          2.267            2.750     57.76   1670.56
         C          2.312            2.750     57.39   1659.87
         C          3.154            2.750     50.50   1460.63
         C          3.247            2.750     49.46   1430.57
         C          3.248            2.750     49.44   1429.76
         C          3.249            2.750     49.43   1429.65
         C          3.249            2.750     49.43   1429.65
         C          3.248            2.750     49.44   1429.84
         C          3.248            2.750     49.44   1429.88
         C          3.248            2.750     49.44   1429.90
         C          3.252            2.750     49.39   1428.33
         C          3.253            2.750     49.37   1427.88
         C          3.252            2.750     49.39   1428.37
         C          3.249            2.750     49.43   1429.53
         C          3.254            2.750     49.35   1427.39
         C          3.317            2.750     48.22   1394.58
         C          2.326            2.750     57.26   1656.14
         C          3.335            2.750     47.83   1383.38
         C          3.380            2.750     46.74   1351.77
         C          3.291            2.750     48.73   1409.30
         C          3.298            2.750     48.61   1405.90
         C          3.300            2.750     48.56   1404.32
         C          3.300            2.750     48.56   1404.52
         C          3.299            2.750     48.59   1405.24
         C          3.298            2.750     48.61   1405.76
         C          3.297            2.750     48.62   1406.16
         C          3.297            2.750     48.62   1406.22
         C          3.301            2.750     48.55   1404.29
         C          3.306            2.750     48.45   1401.27
         C          3.300            2.750     48.56   1404.32
         C          3.295            2.750     48.66   1407.19
         C          3.293            2.750     48.70   1408.48
         C          3.541            2.750     42.09   1217.35
         C          3.811            2.750     37.42   1082.21
         C          3.351            2.750     47.46   1372.64
         C          3.286            2.750     48.83   1412.33
         C          3.299            2.750     48.58   1405.15
         C          3.301            2.750     48.55   1404.17
         C          3.300            2.750     48.57   1404.85
         C          3.298            2.750     48.60   1405.47
         C          3.297            2.750     48.61   1405.98
         C          3.297            2.750     48.63   1406.38
         C          3.298            2.750     48.61   1405.74
         C          3.304            2.750     48.49   1402.40
         C          3.304            2.750     48.50   1402.57
         C          3.297            2.750     48.62   1406.14
         C          3.297            2.750     48.62   1406.30
         C          3.304            2.750     48.48   1402.26
         C          3.323            2.750     48.09   1390.84
         C          3.533            2.750     42.32   1224.09
         C          3.302            2.750     48.52   1403.22
         C          3.319            2.750     48.18   1393.47
         C          3.330            2.750     47.95   1386.81
         C          3.329            2.750     47.98   1387.54
         C          3.326            2.750     48.03   1389.09
         C          3.324            2.750     48.07   1390.37
         C          3.323            2.750     48.09   1390.87
         C          3.323            2.750     48.10   1391.04
         C          3.324            2.750     48.08   1390.52
         C          3.331            2.750     47.93   1386.25
         C          3.329            2.750     47.97   1387.45
         C          3.323            2.750     48.10   1391.19
         C          3.317            2.750     48.23   1394.81
         C          3.310            2.750     48.37   1399.02
         C          3.298            2.750     48.60   1405.49
         C          3.340            2.750     47.74   1380.61
         C          3.299            2.750     48.59   1405.37
         C          3.320            2.750     48.17   1393.19
         C          3.325            2.750     48.05   1389.65
         C          3.327            2.750     48.01   1388.59
         C          3.326            2.750     48.04   1389.43
         C          3.324            2.750     48.08   1390.47
         C          3.323            2.750     48.09   1390.91
         C          3.324            2.750     48.08   1390.60
         C          3.326            2.750     48.03   1389.12
         C          3.329            2.750     47.97   1387.36
         C          3.325            2.750     48.05   1389.70
         C          3.326            2.750     48.04   1389.34
         C          3.319            2.750     48.18   1393.32
         C          3.312            2.750     48.34   1397.97
         C          2.285            2.750     57.63   1666.72
         C          2.273            2.750     57.72   1669.35
         C          3.375            2.750     46.89   1356.03
         C          3.231            2.750     49.67   1436.65
         C          3.254            2.750     49.36   1427.44
         C          3.250            2.750     49.42   1429.22
         C          3.246            2.750     49.47   1430.66
         C          3.244            2.750     49.51   1431.82
         C          3.242            2.750     49.53   1432.43
         C          3.242            2.750     49.53   1432.51
         C          3.242            2.750     49.53   1432.45
         C          3.244            2.750     49.50   1431.56
         C          3.250            2.750     49.42   1429.25
         C          3.249            2.750     49.43   1429.48
         C          3.247            2.750     49.46   1430.38
         C          3.264            2.750     49.19   1422.77
         C          3.382            2.750     46.69   1350.25
         C          3.255            2.750     49.33   1426.75
         C          3.354            2.750     47.39   1370.52
         C          3.267            2.750     49.15   1421.50
         C          3.246            2.750     49.47   1430.84
         C          3.246            2.750     49.47   1430.75
         C          3.245            2.750     49.48   1431.16
         C          3.243            2.750     49.51   1432.01
         C          3.242            2.750     49.53   1432.43
         C          3.242            2.750     49.52   1432.32
         C          3.242            2.750     49.52   1432.30
         C          3.246            2.750     49.47   1430.79
         C          3.250            2.750     49.41   1428.98
         C          3.251            2.750     49.40   1428.68
         C          3.252            2.750     49.38   1428.26
         C          3.227            2.750     49.74   1438.50
         C          3.546            2.750     41.94   1213.01
         C          2.295            2.750     57.54   1664.21
         C          3.189            2.750     50.17   1451.06
         C          2.234            2.750     57.98   1677.00
         C          2.230            2.750     58.01   1677.67
         C          2.224            2.750     58.04   1678.63
         C          2.221            2.750     58.06   1679.13
         C          2.220            2.750     58.07   1679.38
         C          2.220            2.750     58.07   1679.39
         C          2.220            2.750     58.07   1679.40
         C          2.220            2.750     58.06   1679.28
         C          2.224            2.750     58.04   1678.75
         C          2.223            2.750     58.05   1678.88
         C          2.216            2.750     58.09   1680.08
         C          2.213            2.750     58.10   1680.45
         C          2.194            2.750     58.20   1683.33
         C          3.331            2.750     47.92   1385.88
         C          3.211            2.750     49.94   1444.22
         C          2.209            2.750     58.12   1681.05
         C          2.219            2.750     58.07   1679.59
         C          2.215            2.750     58.09   1680.14
         C          2.220            2.750     58.06   1679.32
         C          2.221            2.750     58.06   1679.17
         C          2.221            2.750     58.06   1679.20
         C          2.220            2.750     58.06   1679.30
         C          2.221            2.750     58.06   1679.22
         C          2.222            2.750     58.06   1679.07
         C          2.223            2.750     58.05   1678.82
         C          2.223            2.750     58.05   1678.91
         C          2.227            2.750     58.03   1678.21
         C          2.229            2.750     58.01   1677.82
         C          3.185            2.750     50.21   1452.29
         C          2.267            2.750     57.76   1670.63
         Al         3.977            3.789    307.19  29441.37
         Cl         1.065            2.933    180.84   7545.23
         Cl         1.051            2.933    180.84   7545.45
         Cl         1.047            2.933    180.85   7545.51
         Cl         1.052            2.933    180.84   7545.42

         Molecular C6 ( Ry / a.u.^6 ) =   2106881.35


     number of k points=     1  Methfessel-Paxton smearing, width (Ry)=  0.0200
                       cart. coord. in units 2pi/alat
        k(    1) = (   0.0000000   0.0000000   0.0000000), wk =   2.0000000

     Dense  grid: 29381147 G-vectors     FFT dimensions: ( 576, 576, 192)

     Smooth grid: 12173313 G-vectors     FFT dimensions: ( 405, 405, 144)

     Estimated max dynamical RAM per process >      96.51 GB

     Estimated total dynamical RAM >     386.06 GB

     Check: negative core charge=   -0.000001

     Initial potential from superposition of free atoms

     starting charge     798.9897, renormalised to     799.0000

     negative rho (up, down):  1.935E-02 0.000E+00
     Starting wfcs are  788 randomized atomic wfcs
     Checking if some PAW data can be deallocated... 

     total cpu time spent up to now is       56.4 secs

     Self-consistent Calculation

     iteration #  1     ecut=    45.33 Ry     beta= 0.10
     CG style diagonalization
     ethr =  1.00E-02,  avg # of iterations =  3.0

     negative rho (up, down):  2.150E-02 0.000E+00

     total cpu time spent up to now is      156.3 secs

     total energy              =   -3892.00203501 Ry
     estimated scf accuracy    <      21.90661502 Ry

     iteration #  2     ecut=    45.33 Ry     beta= 0.10
     CG style diagonalization
     ethr =  2.74E-03,  avg # of iterations =  3.0

     negative rho (up, down):  2.598E-02 0.000E+00

     total cpu time spent up to now is      230.9 secs

     total energy              =   -3887.59548739 Ry
     estimated scf accuracy    <      15.50998006 Ry

     iteration #  3     ecut=    45.33 Ry     beta= 0.10
     CG style diagonalization
     ethr =  1.94E-03,  avg # of iterations =  3.0

     negative rho (up, down):  3.091E-02 0.000E+00

     total cpu time spent up to now is      305.4 secs

     total energy              =   -3886.60080842 Ry
     estimated scf accuracy    <      10.65602559 Ry

     iteration #  4     ecut=    45.33 Ry     beta= 0.10
     CG style diagonalization
     ethr =  1.33E-03,  avg # of iterations =  3.0

     negative rho (up, down):  3.415E-02 0.000E+00

     total cpu time spent up to now is      379.9 secs

     total energy              =   -3886.30296550 Ry
     estimated scf accuracy    <       5.19542232 Ry

     iteration #  5     ecut=    45.33 Ry     beta= 0.10
     CG style diagonalization
     ethr =  6.50E-04,  avg # of iterations =  3.1

     negative rho (up, down):  3.608E-02 0.000E+00

     total cpu time spent up to now is      456.1 secs

     total energy              =   -3886.30852441 Ry
     estimated scf accuracy    <       3.86105427 Ry

     iteration #  6     ecut=    45.33 Ry     beta= 0.10
     CG style diagonalization
     ethr =  4.83E-04,  avg # of iterations =  3.0

     negative rho (up, down):  3.761E-02 0.000E+00

     total cpu time spent up to now is      531.3 secs

     total energy              =   -3886.37715088 Ry
     estimated scf accuracy    <       1.61660689 Ry

     iteration #  7     ecut=    45.33 Ry     beta= 0.10
     CG style diagonalization
     ethr =  2.02E-04,  avg # of iterations =  3.1

     negative rho (up, down):  3.903E-02 0.000E+00

     total cpu time spent up to now is      607.8 secs

     total energy              =   -3886.40949665 Ry
     estimated scf accuracy    <       0.84888150 Ry

     iteration #  8     ecut=    45.33 Ry     beta= 0.10
     CG style diagonalization
     ethr =  1.06E-04,  avg # of iterations =  3.0

     negative rho (up, down):  4.006E-02 0.000E+00

     total cpu time spent up to now is      683.0 secs

     total energy              =   -3886.44555281 Ry
     estimated scf accuracy    <       0.95845666 Ry

     iteration #  9     ecut=    45.33 Ry     beta= 0.10
     CG style diagonalization
     ethr =  1.06E-04,  avg # of iterations =  3.0

     negative rho (up, down):  4.107E-02 0.000E+00

     total cpu time spent up to now is      758.0 secs

     total energy              =   -3886.43115331 Ry
     estimated scf accuracy    <       0.58446855 Ry

     iteration # 10     ecut=    45.33 Ry     beta= 0.10
     CG style diagonalization
     ethr =  7.32E-05,  avg # of iterations =  3.0

     negative rho (up, down):  4.253E-02 0.000E+00

     total cpu time spent up to now is      832.9 secs

     total energy              =   -3886.43266237 Ry
     estimated scf accuracy    <       0.46783760 Ry

     iteration # 11     ecut=    45.33 Ry     beta= 0.10
     CG style diagonalization
     ethr =  5.86E-05,  avg # of iterations =  3.0

     negative rho (up, down):  4.371E-02 0.000E+00

     total cpu time spent up to now is      907.8 secs

     total energy              =   -3886.43637760 Ry
     estimated scf accuracy    <       0.16310481 Ry

     iteration # 12     ecut=    45.33 Ry     beta= 0.10
     CG style diagonalization
     ethr =  2.04E-05,  avg # of iterations =  3.0

     negative rho (up, down):  4.545E-02 0.000E+00

     total cpu time spent up to now is      983.1 secs

     total energy              =   -3886.43172699 Ry
     estimated scf accuracy    <       0.08276311 Ry

     iteration # 13     ecut=    45.33 Ry     beta= 0.10
     CG style diagonalization
     c_bands:  1 eigenvalues not converged
     ethr =  1.04E-05,  avg # of iterations =  3.1

     negative rho (up, down):  4.632E-02 0.000E+00

     total cpu time spent up to now is     1060.9 secs

     total energy              =   -3886.43361041 Ry
     estimated scf accuracy    <       0.07621445 Ry

     iteration # 14     ecut=    45.33 Ry     beta= 0.10
     CG style diagonalization
     c_bands:  1 eigenvalues not converged
     ethr =  9.54E-06,  avg # of iterations =  3.0

     negative rho (up, down):  4.687E-02 0.000E+00

     total cpu time spent up to now is     1137.0 secs

     total energy              =   -3886.43794049 Ry
     estimated scf accuracy    <       0.12082038 Ry

     iteration # 15     ecut=    45.33 Ry     beta= 0.10
     CG style diagonalization
     ethr =  9.54E-06,  avg # of iterations =  3.0

     negative rho (up, down):  4.737E-02 0.000E+00

     total cpu time spent up to now is     1212.9 secs

     total energy              =   -3886.43658693 Ry
     estimated scf accuracy    <       0.05906158 Ry

     iteration # 16     ecut=    45.33 Ry     beta= 0.10
     CG style diagonalization
     ethr =  7.39E-06,  avg # of iterations =  3.0

     negative rho (up, down):  4.786E-02 0.000E+00

     total cpu time spent up to now is     1288.1 secs

     total energy              =   -3886.43806981 Ry
     estimated scf accuracy    <       0.02636179 Ry

     iteration # 17     ecut=    45.33 Ry     beta= 0.10
     CG style diagonalization
     ethr =  3.30E-06,  avg # of iterations =  3.0

     negative rho (up, down):  4.836E-02 0.000E+00

     total cpu time spent up to now is     1363.6 secs

     total energy              =   -3886.43854617 Ry
     estimated scf accuracy    <       0.00233828 Ry

     iteration # 18     ecut=    45.33 Ry     beta= 0.10
     CG style diagonalization
     ethr =  2.93E-07,  avg # of iterations =  3.4

     negative rho (up, down):  4.874E-02 0.000E+00

     total cpu time spent up to now is     1448.8 secs

     total energy              =   -3886.43872254 Ry
     estimated scf accuracy    <       0.00134781 Ry

     iteration # 19     ecut=    45.33 Ry     beta= 0.10
     CG style diagonalization
     ethr =  1.69E-07,  avg # of iterations =  3.0

     negative rho (up, down):  4.908E-02 0.000E+00

     total cpu time spent up to now is     1524.3 secs

     total energy              =   -3886.43871401 Ry
     estimated scf accuracy    <       0.00051719 Ry

     iteration # 20     ecut=    45.33 Ry     beta= 0.10
     CG style diagonalization
     ethr =  6.47E-08,  avg # of iterations =  3.5

     negative rho (up, down):  4.942E-02 0.000E+00

     total cpu time spent up to now is     1613.3 secs

     total energy              =   -3886.43875840 Ry
     estimated scf accuracy    <       0.00038787 Ry

     iteration # 21     ecut=    45.33 Ry     beta= 0.10
     CG style diagonalization
     ethr =  4.85E-08,  avg # of iterations =  3.0

     negative rho (up, down):  4.973E-02 0.000E+00

     total cpu time spent up to now is     1688.3 secs

     total energy              =   -3886.43876750 Ry
     estimated scf accuracy    <       0.00015647 Ry

     iteration # 22     ecut=    45.33 Ry     beta= 0.10
     CG style diagonalization
     ethr =  1.96E-08,  avg # of iterations =  3.3

     negative rho (up, down):  4.998E-02 0.000E+00

     total cpu time spent up to now is     1772.5 secs

     total energy              =   -3886.43878979 Ry
     estimated scf accuracy    <       0.00003333 Ry

     iteration # 23     ecut=    45.33 Ry     beta= 0.10
     CG style diagonalization
     ethr =  4.17E-09,  avg # of iterations =  3.8

     negative rho (up, down):  5.022E-02 0.000E+00

     total cpu time spent up to now is     1867.9 secs

     total energy              =   -3886.43879687 Ry
     estimated scf accuracy    <       0.00001178 Ry

     iteration # 24     ecut=    45.33 Ry     beta= 0.10
     CG style diagonalization
     ethr =  1.47E-09,  avg # of iterations =  3.4

     negative rho (up, down):  5.275E-02 0.000E+00

     total cpu time spent up to now is     1951.9 secs

     End of self-consistent calculation

          k = 0.0000 0.0000 0.0000 (****** PWs)   bands (ev):

   -24.0100 -23.7249 -23.7011 -23.6789 -23.6156 -23.5501 -23.4952 -23.4068
   -23.3417 -23.2476 -23.1295 -23.0325 -22.9295 -22.8336 -22.7252 -22.6063
   -22.5343 -22.5148 -22.4893 -22.4524 -22.3925 -22.3675 -22.3112 -22.2544
   -22.1815 -22.1639 -22.0675 -22.0418 -21.9501 -21.9136 -21.8552 -21.8204
   -21.6154 -21.5126 -21.4511 -21.4035 -21.2549 -21.1691 -21.1300 -21.0430
   -20.8804 -20.8379 -20.7078 -20.6377 -20.5145 -20.4584 -20.4250 -20.4139
   -20.3669 -20.3596 -20.3241 -20.2808 -20.2393 -20.1759 -20.1144 -20.0646
   -20.0376 -20.0220 -19.9318 -19.7971 -19.7249 -19.6935 -19.6585 -19.5825
   -19.5235 -19.4692 -19.4492 -19.3658 -19.2901 -19.2467 -19.1802 -19.0749
   -18.9756 -18.8988 -18.8502 -18.8193 -18.7552 -18.6618 -18.6524 -18.5383
   -18.4673 -18.4603 -18.4146 -18.3376 -18.2973 -18.2416 -18.1935 -18.1249
   -18.0924 -18.0351 -18.0260 -18.0146 -17.9541 -17.9074 -17.9017 -17.8608
   -17.8450 -17.8065 -17.7255 -17.5236 -17.4276 -17.2344 -17.1124 -17.0554
   -16.9438 -16.8004 -16.6841 -16.5496 -16.4873 -16.4450 -16.3979 -16.3975
   -16.3600 -16.3350 -16.2978 -16.2891 -16.2476 -16.2108 -16.1691 -16.1158
   -16.0738 -16.0242 -15.9228 -15.8808 -15.8482 -15.7526 -15.7123 -15.7008
   -15.6649 -15.6455 -15.6277 -15.5755 -15.5238 -15.4923 -15.4390 -15.4164
   -15.3843 -15.2918 -15.1855 -14.9728 -14.8160 -14.6874 -14.5912 -14.4821
   -14.3490 -14.2190 -14.1397 -14.1303 -14.1117 -14.0717 -14.0242 -13.9859
   -13.9714 -13.9590 -13.9183 -13.8755 -13.8332 -13.8044 -13.7323 -13.7202
   -13.6802 -13.6528 -13.6178 -13.5920 -13.4969 -13.4228 -13.3336 -13.2772
   -13.2190 -13.1803 -13.1053 -13.0123 -12.9825 -12.9323 -12.8752 -12.8397
   -12.8240 -12.8135 -12.8062 -12.7872 -12.7495 -12.7241 -12.7032 -12.6745
   -12.6025 -12.5750 -12.4835 -12.4405 -12.3807 -12.3414 -12.2147 -12.1521
   -12.1208 -12.0988 -12.0282 -12.0021 -11.9946 -11.9730 -11.8905 -11.8498
   -11.8344 -11.8131 -11.8003 -11.7748 -11.7533 -11.7368 -11.7234 -11.6822
   -11.6553 -11.6436 -11.5937 -11.5765 -11.5638 -11.5218 -11.4877 -11.4651
   -11.4431 -11.4200 -11.4138 -11.3858 -11.3737 -11.3656 -11.3629 -11.3521
   -11.3238 -11.3115 -11.2591 -11.2257 -11.2037 -11.1892 -11.1585 -11.1499
   -11.1066 -11.0377 -11.0320 -11.0040 -10.9687 -10.9457 -10.9203 -10.8021
   -10.7525 -10.7198 -10.7052 -10.6236 -10.6132 -10.5469 -10.5236 -10.4903
   -10.4470 -10.4412 -10.4136 -10.3871 -10.3580 -10.3520 -10.3284 -10.2827
   -10.2668 -10.2241 -10.1861 -10.1379 -10.1280 -10.1096 -10.0719 -10.0499
    -9.9918  -9.9568  -9.9335  -9.8794  -9.8551  -9.8342  -9.7746  -9.7508
    -9.7159  -9.6989  -9.6400  -9.6314  -9.5945  -9.5816  -9.5555  -9.5457
    -9.5306  -9.5177  -9.4778  -9.4703  -9.4524  -9.4386  -9.4287  -9.3811
    -9.3334  -9.2779  -9.2412  -9.2196  -9.1998  -9.0904  -9.0565  -8.9611
    -8.8929  -8.8275  -8.7678  -8.5981  -8.5317  -8.4360  -8.3828  -8.3652
    -8.3173  -8.2941  -8.2519  -8.2117  -8.1607  -8.1306  -8.0761  -8.0028
    -7.9767  -7.9116  -7.8845  -7.8002  -7.7897  -7.6877  -7.6401  -7.6012
    -7.5248  -7.4792  -7.4361  -7.3604  -7.3333  -7.3094  -7.2676  -7.2558
    -7.2435  -7.2390  -7.2082  -7.1917  -7.1878  -7.1694  -7.1444  -7.1275
    -7.1249  -7.1013  -7.0902  -7.0688  -7.0434  -7.0348  -7.0266  -6.9538
    -6.9496  -6.9304  -6.9041  -6.8804  -6.8336  -6.8244  -6.8094  -6.8042
    -6.7385  -6.6830  -6.6076  -6.5935  -6.5833  -6.5306  -6.4874  -6.4784
    -6.4705  -6.4639  -6.4596  -6.4559  -6.4460  -6.4367  -6.4227  -6.4064
    -6.3878  -6.3699  -6.3591  -6.3383  -6.3137  -6.2970  -6.2908  -6.2708
    -6.1995  -6.1755  -6.1341  -6.1290  -6.1117  -6.0426  -6.0055  -5.9719
    -5.9471  -5.9291  -5.9156  -5.9029  -5.8831  -5.8684  -5.8014  -5.7012
    -5.4978  -5.4160  -5.3913  -5.3534  -5.3435  -5.2366  -5.2057  -5.1348
    -5.1128  -5.0638  -5.0482  -4.9710  -4.8723  -4.8012  -4.7344  -4.7067
    -4.6514  -4.5441  -4.4351  -4.3900  -4.3527  -4.2663  -4.2125  -4.1612
    -4.0766  -4.0455  -4.0103  -3.9916  -3.9772  -3.9151  -3.9017  -3.8908
    -3.8227  -3.7660  -3.6882  -3.6378  -3.5045  -3.3872  -3.3760  -3.2783
    -3.2294  -3.1971  -3.1722  -3.1283  -3.0855  -3.0379  -3.0278  -2.9357
    -2.9251  -2.9219  -2.8047  -2.7265  -2.6631  -2.6489  -2.6097  -2.5653
    -2.5465  -2.5259  -2.5137  -2.4869  -2.4592  -2.4231  -2.3703  -2.3310
    -2.2653  -2.2297  -2.1815  -2.1522  -2.0619  -1.9524  -1.9144  -1.7323
    -1.7020  -1.6419  -1.6044  -1.5350  -1.5072  -1.4839  -1.3214  -1.2692
    -1.1624  -0.9313  -0.7796  -0.6944  -0.6603  -0.5869  -0.4978  -0.4790

     the Fermi energy is    -5.1575 ev

!    total energy              =   -3886.43880013 Ry
     total all-electron energy =    -18797.962589 Ry
     estimated scf accuracy    <       0.00000647 Ry
     smearing contrib. (-TS)   =      -0.01092539 Ry
     internal energy E=F+TS    =   -3886.42787474 Ry

     The total energy is F=E-TS. E is the sum of the following terms:
     one-electron contribution =  -45887.75604424 Ry
     hartree contribution      =   23033.20606689 Ry
     xc contribution           =    -923.15767820 Ry
     ewald contribution        =   21292.33965516 Ry
     DFT-D3 Dispersion         =      -0.40458703 Ry
     one-center paw contrib.   =   -1400.65528732 Ry

     convergence has been achieved in  24 iterations
