
     Program PWSCF v.7.3.1 starts on 15Apr2025 at 21:27:16 

     This program is part of the open-source Quantum ESPRESSO suite
     for quantum simulation of materials; please cite
         "P. Giannozzi et al., J. Phys.:Condens. Matter 21 395502 (2009);
         "P. Giannozzi et al., J. Phys.:Condens. Matter 29 465901 (2017);
         "P. Giannozzi et al., J. Chem. Phys. 152 154105 (2020);
          URL http://www.quantum-espresso.org", 
     in publications or presentations arising from this work. More details at
     http://www.quantum-espresso.org/quote

     Parallel version (MPI), running on    64 processors

     MPI processes distributed on     1 nodes
     521007 MiB available memory on the printing compute node when the environment starts
 
     Reading input from pw.in
Warning: card &CELL ignored
Warning: card / ignored
Warning: card ~ ignored

     Current dimensions of program PWSCF are:
     Max number of different atomic species (ntypx) = 10
     Max number of k-points (npk) =  40000
     Max angular momentum in pseudopotentials (lmaxx) =  4
     file C.pbe-n-kjpaw_psl.1.0.0.UPF: wavefunction(s)  2S 2P renormalized
     file Al.pbe-n-kjpaw_psl.1.0.0.UPF: wavefunction(s)  3S 3P renormalized
     file Cl.pbe-n-kjpaw_psl.1.0.0.UPF: wavefunction(s)  3S 3P renormalized
 
     R & G space division:  proc/nbgrp/npool/nimage =      64
     Subspace diagonalization in iterative solution of the eigenvalue problem:
     one sub-group per band group will be used
     scalapack distributed-memory algorithm (size of sub-group:  5*  5 procs)

 
     Parallelization info
     --------------------
     sticks:   dense  smooth     PW     G-vecs:    dense   smooth      PW
     Min        3621    2013    503               582747   241439   30177
     Max        3622    2014    505               582750   241441   30178
     Sum      231789  128845  32249             37295885 15452175 1931369
 
     Using Slab Decomposition
 


     bravais-lattice index     =            0
     lattice parameter (alat)  =      94.4863  a.u.
     unit-cell volume          =  374761.1913 (a.u.)^3
     number of atoms/cell      =          197
     number of atomic types    =            3
     number of electrons       =       799.00
     number of Kohn-Sham states=          480
     kinetic-energy cutoff     =      45.3312  Ry
     charge density cutoff     =     326.2606  Ry
     scf convergence threshold =      1.0E-06
     mixing beta               =       0.3000
     number of iterations used =            8  local-TF  mixing
     energy convergence thresh.=      1.0E-04
     force convergence thresh. =      1.0E-03
     Exchange-correlation= SLA  PW   PBX  PBC
                           (   1   4   3   4   0   0   0)
     nstep                     =          200


     celldm(1)=  94.486306  celldm(2)=   0.000000  celldm(3)=   0.000000
     celldm(4)=   0.000000  celldm(5)=   0.000000  celldm(6)=   0.000000

     crystal axes: (cart. coord. in units of alat)
               a(1) = (   1.000000   0.000000   0.000000 )  
               a(2) = (   0.000000   1.000000   0.000000 )  
               a(3) = (   0.000000   0.000000   0.444271 )  

     reciprocal axes: (cart. coord. in units 2 pi/alat)
               b(1) = (  1.000000  0.000000  0.000000 )  
               b(2) = (  0.000000  1.000000  0.000000 )  
               b(3) = (  0.000000  0.000000  2.250878 )  


     PseudoPot. # 1 for C  read from file:
     /home/elmer.barquero/carbon_nn/pseudo/C.pbe-n-kjpaw_psl.1.0.0.UPF
     MD5 check sum: 5f16ad9a65e90284d1d834d4ab3b0f7d
     Pseudo is Projector augmented-wave + core cor, Zval =  4.0
     Generated using &quot;atomic&quot; code by A. Dal Corso  v.6.3
     Shape of augmentation charge: PSQ
     Using radial grid of 1073 points,  4 beta functions with: 
                l(1) =   0
                l(2) =   0
                l(3) =   1
                l(4) =   1
     Q(r) pseudized with 0 coefficients 


     PseudoPot. # 2 for Al read from file:
     /home/elmer.barquero/carbon_nn/pseudo/Al.pbe-n-kjpaw_psl.1.0.0.UPF
     MD5 check sum: 502b6b27b9c6270cab5dd1084b96fa6d
     Pseudo is Projector augmented-wave + core cor, Zval =  3.0
     Generated using &quot;atomic&quot; code by A. Dal Corso  v.6.3
     Shape of augmentation charge: PSQ
     Using radial grid of 1135 points,  6 beta functions with: 
                l(1) =   0
                l(2) =   0
                l(3) =   1
                l(4) =   1
                l(5) =   2
                l(6) =   2
     Q(r) pseudized with 0 coefficients 


     PseudoPot. # 3 for Cl read from file:
     /home/elmer.barquero/carbon_nn/pseudo/Cl.pbe-n-kjpaw_psl.1.0.0.UPF
     MD5 check sum: 530da96d25dcb7781b0586ca00827062
     Pseudo is Projector augmented-wave + core cor, Zval =  7.0
     Generated using &quot;atomic&quot; code by A. Dal Corso  v.6.3
     Shape of augmentation charge: PSQ
     Using radial grid of 1157 points,  6 beta functions with: 
                l(1) =   0
                l(2) =   0
                l(3) =   1
                l(4) =   1
                l(5) =   2
                l(6) =   2
     Q(r) pseudized with 0 coefficients 


     atomic species   valence    mass     pseudopotential
     C                 4.00    12.01100     C ( 1.00)
     Al                3.00    26.98154     Al( 1.00)
     Cl                7.00    35.45000     Cl( 1.00)

     No symmetry found



   Cartesian axes

     site n.     atom                  positions (alat units)
         1        C      tau(   1) = (   0.6087439   0.4368363   0.0220164  )
         2        C      tau(   2) = (   0.6016427   0.5149120   0.1479251  )
         3        C      tau(   3) = (   0.5446482   0.5775385   0.0003594  )
         4        C      tau(   4) = (   0.4636858   0.6013250   0.0003423  )
         5        C      tau(   5) = (   0.3833236   0.5760316   0.0002793  )
         6        C      tau(   6) = (   0.3381571   0.5054522   0.0002625  )
         7        C      tau(   7) = (   0.3502194   0.4222491   0.0002434  )
         8        C      tau(   8) = (   0.4072388   0.3596472   0.0002361  )
         9        C      tau(   9) = (   0.4861825   0.3283813   0.0002169  )
        10        C      tau(  10) = (   0.5710002   0.3324763   0.0001877  )
        11        C      tau(  11) = (   0.6449573   0.3736088   0.0001728  )
        12        C      tau(  12) = (   0.6854474   0.4474079   0.0001397  )
        13        C      tau(  13) = (   0.6799082   0.5318598   0.0001301  )
        14        C      tau(  14) = (   0.6511548   0.6122100   0.0001070  )
        15        C      tau(  15) = (   0.6188216   0.6911619   0.0001761  )
        16        C      tau(  16) = (   0.5799057   0.7676895   0.1479901  )
        17        C      tau(  17) = (   0.6146234   0.4589080   0.0039973  )
        18        C      tau(  18) = (   0.5865709   0.5391851   0.1480996  )
        19        C      tau(  19) = (   0.5192575   0.5904013   0.0003588  )
        20        C      tau(  20) = (   0.4352926   0.5986431   0.0003122  )
        21        C      tau(  21) = (   0.3626303   0.5564385   0.0002741  )
        22        C      tau(  22) = (   0.3358251   0.4770575   0.0002487  )
        23        C      tau(  23) = (   0.3654956   0.3981938   0.0002438  )
        24        C      tau(  24) = (   0.4319718   0.3455063   0.0002297  )
        25        C      tau(  25) = (   0.5145516   0.3257077   0.0002059  )
        26        C      tau(  26) = (   0.5978247   0.3420628   0.0001800  )
        27        C      tau(  27) = (   0.6634197   0.3952844   0.0001664  )
        28        C      tau(  28) = (   0.6882050   0.4757249   0.0001313  )
        29        C      tau(  29) = (   0.6714436   0.5590231   0.0001217  )
        30        C      tau(  30) = (   0.6405062   0.6386059   0.0001037  )
        31        C      tau(  31) = (   0.6069723   0.7170599   0.0002286  )
        32        C      tau(  32) = (   0.5649640   0.7925049   0.1473317  )
        33        C      tau(  33) = (   0.6199751   0.4788678   0.0247973  )
        34        C      tau(  34) = (   0.5782262   0.5508711   0.0247983  )
        35        C      tau(  35) = (   0.5058542   0.5949136   0.0250550  )
        36        C      tau(  36) = (   0.4214342   0.5951645   0.0249738  )
        37        C      tau(  37) = (   0.3541992   0.5449237   0.0249570  )
        38        C      tau(  38) = (   0.3371386   0.4628440   0.0249328  )
        39        C      tau(  39) = (   0.3747225   0.3873108   0.0249286  )
        40        C      tau(  40) = (   0.4450410   0.3397992   0.0249122  )
        41        C      tau(  41) = (   0.5288175   0.3258459   0.0248865  )
        42        C      tau(  42) = (   0.6106202   0.3483688   0.0248611  )
        43        C      tau(  43) = (   0.6711636   0.4072658   0.0248449  )
        44        C      tau(  44) = (   0.6878945   0.4899411   0.0248173  )
        45        C      tau(  45) = (   0.6666466   0.5724148   0.0247995  )
        46        C      tau(  46) = (   0.6352265   0.6517596   0.0247939  )
        47        C      tau(  47) = (   0.6004982   0.7301112   0.0247752  )
        48        C      tau(  48) = (   0.5570716   0.8050262   0.0247782  )
        49        C      tau(  49) = (   0.6106278   0.5052146   0.0247078  )
        50        C      tau(  50) = (   0.5567463   0.5696595   0.0249244  )
        51        C      tau(  51) = (   0.4778900   0.6003761   0.0250356  )
        52        C      tau(  52) = (   0.3952842   0.5838290   0.0249644  )
        53        C      tau(  53) = (   0.3418920   0.5192305   0.0249493  )
        54        C      tau(  54) = (   0.3444517   0.4353030   0.0249311  )
        55        C      tau(  55) = (   0.3957001   0.3680347   0.0249222  )
        56        C      tau(  56) = (   0.4722079   0.3312163   0.0249046  )
        57        C      tau(  57) = (   0.5571121   0.3292217   0.0248727  )
        58        C      tau(  58) = (   0.6343602   0.3641105   0.0248683  )
        59        C      tau(  59) = (   0.6822517   0.4335190   0.0248235  )
        60        C      tau(  60) = (   0.6834946   0.5180723   0.0248069  )
        61        C      tau(  61) = (   0.6564417   0.5990098   0.0247934  )
        62        C      tau(  62) = (   0.6244295   0.6780832   0.0247923  )
        63        C      tau(  63) = (   0.5869297   0.7553666   0.0247685  )
        64        C      tau(  64) = (   0.5427765   0.8276104   0.0247725  )
        65        C      tau(  65) = (   0.6163666   0.4385241   0.0496445  )
        66        C      tau(  66) = (   0.6050118   0.5182443   0.0496698  )
        67        C      tau(  67) = (   0.5449287   0.5775411   0.0496928  )
        68        C      tau(  68) = (   0.4636290   0.6009070   0.0496843  )
        69        C      tau(  69) = (   0.3833247   0.5760235   0.0496428  )
        70        C      tau(  70) = (   0.3381637   0.5054529   0.0496238  )
        71        C      tau(  71) = (   0.3502434   0.4222609   0.0496093  )
        72        C      tau(  72) = (   0.4072348   0.3596473   0.0496001  )
        73        C      tau(  73) = (   0.4861875   0.3283902   0.0495802  )
        74        C      tau(  74) = (   0.5710007   0.3324707   0.0495481  )
        75        C      tau(  75) = (   0.6451717   0.3734448   0.0495301  )
        76        C      tau(  76) = (   0.6858430   0.4473429   0.0494855  )
        77        C      tau(  77) = (   0.6800705   0.5318914   0.0494773  )
        78        C      tau(  78) = (   0.6512125   0.6122392   0.0494713  )
        79        C      tau(  79) = (   0.6189986   0.6912453   0.0494008  )
        80        C      tau(  80) = (   0.5801769   0.7678407   0.0496320  )
        81        C      tau(  81) = (   0.6248620   0.4665705   0.0496565  )
        82        C      tau(  82) = (   0.5881320   0.5408560   0.0496700  )
        83        C      tau(  83) = (   0.5193390   0.5900359   0.0497047  )
        84        C      tau(  84) = (   0.4352881   0.5985097   0.0496655  )
        85        C      tau(  85) = (   0.3626239   0.5564475   0.0496377  )
        86        C      tau(  86) = (   0.3358115   0.4770572   0.0496129  )
        87        C      tau(  87) = (   0.3654944   0.3981881   0.0496088  )
        88        C      tau(  88) = (   0.4319712   0.3455075   0.0495931  )
        89        C      tau(  89) = (   0.5145543   0.3256944   0.0495707  )
        90        C      tau(  90) = (   0.5978352   0.3420417   0.0495353  )
        91        C      tau(  91) = (   0.6637399   0.3950675   0.0495163  )
        92        C      tau(  92) = (   0.6886549   0.4756973   0.0494812  )
        93        C      tau(  93) = (   0.6714971   0.5590289   0.0494726  )
        94        C      tau(  94) = (   0.6406061   0.6386464   0.0494772  )
        95        C      tau(  95) = (   0.6072403   0.7171914   0.0493233  )
        96        C      tau(  96) = (   0.5651096   0.7925713   0.0502985  )
        97        C      tau(  97) = (   0.6199685   0.4788682   0.0745242  )
        98        C      tau(  98) = (   0.5781661   0.5508003   0.0745566  )
        99        C      tau(  99) = (   0.5057263   0.5944503   0.0743506  )
       100        C      tau( 100) = (   0.4214283   0.5951168   0.0743510  )
       101        C      tau( 101) = (   0.3541893   0.5449283   0.0743187  )
       102        C      tau( 102) = (   0.3371402   0.4628457   0.0742913  )
       103        C      tau( 103) = (   0.3747150   0.3873009   0.0742911  )
       104        C      tau( 104) = (   0.4450364   0.3398003   0.0742725  )
       105        C      tau( 105) = (   0.5288143   0.3258525   0.0742502  )
       106        C      tau( 106) = (   0.6106151   0.3483699   0.0742108  )
       107        C      tau( 107) = (   0.6711671   0.4072648   0.0741820  )
       108        C      tau( 108) = (   0.6879052   0.4899463   0.0741546  )
       109        C      tau( 109) = (   0.6666532   0.5724346   0.0741599  )
       110        C      tau( 110) = (   0.6353274   0.6518881   0.0741463  )
       111        C      tau( 111) = (   0.6013814   0.7298700   0.0739228  )
       112        C      tau( 112) = (   0.5586003   0.8034752   0.0750620  )
       113        C      tau( 113) = (   0.6106147   0.5052083   0.0746304  )
       114        C      tau( 114) = (   0.5566321   0.5694668   0.0744506  )
       115        C      tau( 115) = (   0.4778231   0.5999702   0.0743544  )
       116        C      tau( 116) = (   0.3952788   0.5838185   0.0743362  )
       117        C      tau( 117) = (   0.3418880   0.5192327   0.0743108  )
       118        C      tau( 118) = (   0.3444494   0.4353052   0.0742914  )
       119        C      tau( 119) = (   0.3956893   0.3680188   0.0742837  )
       120        C      tau( 120) = (   0.4722058   0.3312218   0.0742650  )
       121        C      tau( 121) = (   0.5571102   0.3292244   0.0742324  )
       122        C      tau( 122) = (   0.6343550   0.3641135   0.0742003  )
       123        C      tau( 123) = (   0.6822417   0.4335159   0.0741638  )
       124        C      tau( 124) = (   0.6835098   0.5180664   0.0741624  )
       125        C      tau( 125) = (   0.6564660   0.5990072   0.0741627  )
       126        C      tau( 126) = (   0.6245906   0.6782352   0.0741195  )
       127        C      tau( 127) = (   0.5881080   0.7549452   0.0737799  )
       128        C      tau( 128) = (   0.5441627   0.8262417   0.0862270  )
       129        C      tau( 129) = (   0.6087263   0.4368616   0.0772862  )
       130        C      tau( 130) = (   0.6016287   0.5149011   0.0995157  )
       131        C      tau( 131) = (   0.5445270   0.5772888   0.0990006  )
       132        C      tau( 132) = (   0.4636539   0.6010435   0.0990148  )
       133        C      tau( 133) = (   0.3833169   0.5760299   0.0990155  )
       134        C      tau( 134) = (   0.3381690   0.5054518   0.0989894  )
       135        C      tau( 135) = (   0.3502295   0.4222542   0.0989737  )
       136        C      tau( 136) = (   0.4072315   0.3596404   0.0989631  )
       137        C      tau( 137) = (   0.4861826   0.3283891   0.0989446  )
       138        C      tau( 138) = (   0.5709998   0.3324691   0.0989077  )
       139        C      tau( 139) = (   0.6449630   0.3736079   0.0988864  )
       140        C      tau( 140) = (   0.6854422   0.4474012   0.0988395  )
       141        C      tau( 141) = (   0.6799233   0.5318619   0.0988327  )
       142        C      tau( 142) = (   0.6511884   0.6122415   0.0988290  )
       143        C      tau( 143) = (   0.6190475   0.6912909   0.0988238  )
       144        C      tau( 144) = (   0.5814857   0.7664070   0.0987911  )
       145        C      tau( 145) = (   0.6146194   0.4589045   0.0953186  )
       146        C      tau( 146) = (   0.5865523   0.5391577   0.0993488  )
       147        C      tau( 147) = (   0.5191251   0.5900337   0.0990081  )
       148        C      tau( 148) = (   0.4352823   0.5985524   0.0990222  )
       149        C      tau( 149) = (   0.3626308   0.5564333   0.0990051  )
       150        C      tau( 150) = (   0.3358413   0.4770601   0.0989775  )
       151        C      tau( 151) = (   0.3655009   0.3981976   0.0989741  )
       152        C      tau( 152) = (   0.4319693   0.3455059   0.0989557  )
       153        C      tau( 153) = (   0.5145492   0.3257153   0.0989344  )
       154        C      tau( 154) = (   0.5978229   0.3420526   0.0988905  )
       155        C      tau( 155) = (   0.6634307   0.3952825   0.0988682  )
       156        C      tau( 156) = (   0.6882159   0.4757237   0.0988359  )
       157        C      tau( 157) = (   0.6714560   0.5590407   0.0988331  )
       158        C      tau( 158) = (   0.6405888   0.6386844   0.0988245  )
       159        C      tau( 159) = (   0.6074623   0.7172243   0.0988117  )
       160        C      tau( 160) = (   0.5672185   0.7899169   0.0988055  )
       161        C      tau( 161) = (   0.6114992   0.4699765   0.1237167  )
       162        C      tau( 162) = (   0.5768604   0.5499744   0.1237251  )
       163        C      tau( 163) = (   0.5057765   0.5949016   0.1237234  )
       164        C      tau( 164) = (   0.4214373   0.5951664   0.1237153  )
       165        C      tau( 165) = (   0.3541942   0.5449195   0.1236855  )
       166        C      tau( 166) = (   0.3371373   0.4628441   0.1236589  )
       167        C      tau( 167) = (   0.3747310   0.3873165   0.1236543  )
       168        C      tau( 168) = (   0.4450347   0.3397992   0.1236391  )
       169        C      tau( 169) = (   0.5288135   0.3258882   0.1236140  )
       170        C      tau( 170) = (   0.6105718   0.3484045   0.1235782  )
       171        C      tau( 171) = (   0.6708290   0.4074318   0.1235581  )
       172        C      tau( 172) = (   0.6875322   0.4899321   0.1235218  )
       173        C      tau( 173) = (   0.6666246   0.5724241   0.1235135  )
       174        C      tau( 174) = (   0.6351883   0.6518283   0.1235095  )
       175        C      tau( 175) = (   0.6010642   0.7296970   0.1236880  )
       176        C      tau( 176) = (   0.5585069   0.8034285   0.1225613  )
       177        C      tau( 177) = (   0.6058822   0.4991514   0.1237214  )
       178        C      tau( 178) = (   0.5561471   0.5693049   0.1237199  )
       179        C      tau( 179) = (   0.4778820   0.6004855   0.1237227  )
       180        C      tau( 180) = (   0.3952792   0.5838439   0.1236998  )
       181        C      tau( 181) = (   0.3418646   0.5192310   0.1236768  )
       182        C      tau( 182) = (   0.3444220   0.4352919   0.1236565  )
       183        C      tau( 183) = (   0.3957010   0.3680272   0.1236509  )
       184        C      tau( 184) = (   0.4722038   0.3312175   0.1236300  )
       185        C      tau( 185) = (   0.5571101   0.3292469   0.1236004  )
       186        C      tau( 186) = (   0.6342422   0.3642248   0.1235771  )
       187        C      tau( 187) = (   0.6818999   0.4336324   0.1235393  )
       188        C      tau( 188) = (   0.6832693   0.5180479   0.1235206  )
       189        C      tau( 189) = (   0.6564289   0.5989957   0.1235023  )
       190        C      tau( 190) = (   0.6244107   0.6781656   0.1235371  )
       191        C      tau( 191) = (   0.5877521   0.7547451   0.1238109  )
       192        C      tau( 192) = (   0.5441768   0.8262565   0.1113848  )
       193        Al     tau( 193) = (   0.5385073   0.6716540   0.1160720  )
       194        Cl     tau( 194) = (   0.5540224   0.6743141   0.0759399  )
       195        Cl     tau( 195) = (   0.5404056   0.7092286   0.1370823  )
       196        Cl     tau( 196) = (   0.5627465   0.6419980   0.1373179  )
       197        Cl     tau( 197) = (   0.4969876   0.6594448   0.1147506  )

     --------------------------------------------
     DFT-D3 Dispersion Correction (3-body terms):
     --------------------------------------------
       Reference C6 values for interpolation: 

         atom   Coordination number   C6
         C          0.000            98.23
         C          0.987            86.49
         C          1.998            58.72
         C          2.999            51.56
         C          3.984            36.41
         Al         0.000          1081.08
         Al         0.965           875.51
         Al         1.931           513.50
         Al         2.915           307.19
         Cl         0.000           184.69
         Cl         0.997           180.80

       Values used:

         atom   Coordination number  R0_AB[au]  C6      C8
         C          2.436            2.750     55.97   1618.72
         C          2.139            2.750     58.45   1690.53
         C          2.150            2.750     58.41   1689.24
         C          2.157            2.750     58.38   1688.31
         C          2.158            2.750     58.37   1688.26
         C          2.158            2.750     58.37   1688.19
         C          2.157            2.750     58.38   1688.36
         C          2.156            2.750     58.38   1688.47
         C          2.156            2.750     58.38   1688.50
         C          2.156            2.750     58.38   1688.46
         C          2.159            2.750     58.37   1688.15
         C          2.161            2.750     58.36   1687.86
         C          2.158            2.750     58.37   1688.19
         C          2.157            2.750     58.38   1688.38
         C          2.156            2.750     58.38   1688.52
         C          2.155            2.750     58.38   1688.56
         C          2.148            2.750     58.42   1689.47
         C          2.144            2.750     58.43   1689.94
         C          2.157            2.750     58.37   1688.30
         C          2.158            2.750     58.37   1688.29
         C          2.158            2.750     58.37   1688.18
         C          2.158            2.750     58.37   1688.26
         C          2.157            2.750     58.38   1688.41
         C          2.156            2.750     58.38   1688.49
         C          2.156            2.750     58.38   1688.50
         C          2.157            2.750     58.38   1688.38
         C          2.160            2.750     58.36   1687.97
         C          2.160            2.750     58.36   1687.93
         C          2.157            2.750     58.38   1688.35
         C          2.157            2.750     58.38   1688.34
         C          2.147            2.750     58.42   1689.57
         C          2.119            2.750     58.53   1692.75
         C          3.391            2.750     46.44   1343.25
         C          2.204            2.750     58.15   1681.92
         C          3.252            2.750     49.38   1428.27
         C          3.250            2.750     49.40   1428.88
         C          3.252            2.750     49.38   1428.16
         C          3.251            2.750     49.40   1428.66
         C          3.249            2.750     49.43   1429.64
         C          3.248            2.750     49.44   1430.00
         C          3.248            2.750     49.45   1430.11
         C          3.250            2.750     49.42   1429.24
         C          3.254            2.750     49.35   1427.16
         C          3.254            2.750     49.35   1427.22
         C          3.249            2.750     49.42   1429.40
         C          3.251            2.750     49.40   1428.68
         C          3.195            2.750     50.11   1449.15
         C          2.079            2.750     58.68   1697.05
         C          2.209            2.750     58.13   1681.14
         C          3.200            2.750     50.06   1447.80
         C          3.252            2.750     49.39   1428.31
         C          3.251            2.750     49.39   1428.58
         C          3.252            2.750     49.38   1428.10
         C          3.250            2.750     49.41   1429.07
         C          3.248            2.750     49.44   1429.87
         C          3.248            2.750     49.45   1430.07
         C          3.248            2.750     49.44   1429.95
         C          3.251            2.750     49.39   1428.56
         C          3.255            2.750     49.34   1426.99
         C          3.252            2.750     49.38   1428.22
         C          3.249            2.750     49.43   1429.71
         C          3.251            2.750     49.39   1428.53
         C          2.187            2.750     58.24   1684.33
         C          1.065            2.750     85.68   2477.96
         C          3.234            2.750     49.64   1435.64
         C          3.265            2.750     49.17   1422.17
         C          3.302            2.750     48.52   1403.29
         C          3.308            2.750     48.40   1399.79
         C          3.306            2.750     48.45   1401.13
         C          3.307            2.750     48.43   1400.74
         C          3.305            2.750     48.48   1402.03
         C          3.303            2.750     48.51   1402.95
         C          3.302            2.750     48.52   1403.22
         C          3.303            2.750     48.51   1402.85
         C          3.306            2.750     48.44   1401.09
         C          3.310            2.750     48.36   1398.63
         C          3.306            2.750     48.44   1401.03
         C          3.304            2.750     48.49   1402.38
         C          3.309            2.750     48.39   1399.46
         C          3.240            2.750     49.56   1433.44
         C          3.711            2.750     38.46   1112.36
         C          3.255            2.750     49.33   1426.71
         C          3.307            2.750     48.44   1400.83
         C          3.307            2.750     48.42   1400.35
         C          3.307            2.750     48.43   1400.70
         C          3.306            2.750     48.45   1401.14
         C          3.304            2.750     48.49   1402.53
         C          3.303            2.750     48.51   1403.09
         C          3.302            2.750     48.52   1403.25
         C          3.304            2.750     48.49   1402.32
         C          3.309            2.750     48.40   1399.68
         C          3.309            2.750     48.38   1399.29
         C          3.305            2.750     48.48   1402.02
         C          3.305            2.750     48.48   1402.00
         C          3.308            2.750     48.41   1400.17
         C          3.208            2.750     49.96   1445.03
         C          3.513            2.750     42.91   1240.99
         C          3.303            2.750     48.50   1402.83
         C          3.313            2.750     48.31   1397.35
         C          3.307            2.750     48.44   1400.87
         C          3.307            2.750     48.43   1400.71
         C          3.306            2.750     48.45   1401.33
         C          3.303            2.750     48.50   1402.64
         C          3.303            2.750     48.51   1403.12
         C          3.302            2.750     48.52   1403.23
         C          3.304            2.750     48.48   1402.11
         C          3.309            2.750     48.38   1399.36
         C          3.309            2.750     48.39   1399.41
         C          3.304            2.750     48.48   1402.15
         C          3.305            2.750     48.46   1401.59
         C          3.315            2.750     48.26   1395.89
         C          3.355            2.750     47.37   1370.16
         C          3.314            2.750     48.29   1396.62
         C          3.305            2.750     48.47   1401.81
         C          3.312            2.750     48.32   1397.47
         C          3.306            2.750     48.44   1400.96
         C          3.307            2.750     48.43   1400.56
         C          3.305            2.750     48.47   1401.87
         C          3.303            2.750     48.51   1402.97
         C          3.303            2.750     48.52   1403.16
         C          3.303            2.750     48.51   1403.00
         C          3.306            2.750     48.45   1401.33
         C          3.310            2.750     48.37   1399.07
         C          3.307            2.750     48.43   1400.63
         C          3.304            2.750     48.50   1402.58
         C          3.309            2.750     48.38   1399.32
         C          3.323            2.750     48.10   1391.13
         C          2.310            2.750     57.41   1660.48
         C          2.447            2.750     55.81   1614.03
         C          3.310            2.750     48.38   1399.12
         C          3.261            2.750     49.25   1424.30
         C          3.258            2.750     49.28   1425.40
         C          3.251            2.750     49.40   1428.59
         C          3.252            2.750     49.38   1428.23
         C          3.250            2.750     49.42   1429.26
         C          3.248            2.750     49.44   1429.90
         C          3.248            2.750     49.45   1430.12
         C          3.248            2.750     49.44   1429.76
         C          3.252            2.750     49.38   1428.15
         C          3.256            2.750     49.33   1426.57
         C          3.252            2.750     49.39   1428.33
         C          3.249            2.750     49.43   1429.65
         C          3.258            2.750     49.28   1425.36
         C          3.325            2.750     48.06   1390.09
         C          3.188            2.750     50.18   1451.33
         C          3.308            2.750     48.41   1400.09
         C          3.262            2.750     49.24   1424.00
         C          3.252            2.750     49.37   1428.01
         C          3.252            2.750     49.38   1428.22
         C          3.251            2.750     49.39   1428.46
         C          3.249            2.750     49.43   1429.62
         C          3.248            2.750     49.44   1429.98
         C          3.248            2.750     49.45   1430.12
         C          3.249            2.750     49.42   1429.32
         C          3.254            2.750     49.35   1427.31
         C          3.255            2.750     49.34   1426.90
         C          3.250            2.750     49.41   1429.04
         C          3.249            2.750     49.42   1429.42
         C          3.260            2.750     49.25   1424.54
         C          3.572            2.750     41.24   1192.84
         C          2.089            2.750     58.64   1696.04
         C          3.207            2.750     49.98   1445.38
         C          2.172            2.750     58.31   1686.42
         C          2.158            2.750     58.37   1688.28
         C          2.158            2.750     58.37   1688.18
         C          2.158            2.750     58.37   1688.26
         C          2.156            2.750     58.38   1688.42
         C          2.156            2.750     58.38   1688.49
         C          2.156            2.750     58.38   1688.50
         C          2.157            2.750     58.38   1688.32
         C          2.160            2.750     58.36   1687.99
         C          2.160            2.750     58.36   1687.93
         C          2.157            2.750     58.37   1688.30
         C          2.160            2.750     58.36   1687.99
         C          2.218            2.750     58.08   1679.76
         C          3.311            2.750     48.34   1398.15
         C          3.162            2.750     50.43   1458.62
         C          2.212            2.750     58.11   1680.60
         C          2.175            2.750     58.30   1686.07
         C          2.158            2.750     58.37   1688.23
         C          2.158            2.750     58.37   1688.18
         C          2.157            2.750     58.38   1688.34
         C          2.156            2.750     58.38   1688.47
         C          2.156            2.750     58.38   1688.49
         C          2.156            2.750     58.38   1688.46
         C          2.158            2.750     58.37   1688.24
         C          2.161            2.750     58.36   1687.90
         C          2.159            2.750     58.37   1688.09
         C          2.157            2.750     58.38   1688.35
         C          2.163            2.750     58.35   1687.66
         C          3.218            2.750     49.85   1441.67
         C          2.305            2.750     57.46   1661.86
         Al         3.986            3.789    307.19  29441.37
         Cl         1.074            2.933    180.84   7545.12
         Cl         1.072            2.933    180.84   7545.14
         Cl         1.061            2.933    180.84   7545.30
         Cl         1.084            2.933    180.83   7544.99

         Molecular C6 ( Ry / a.u.^6 ) =   2120374.83


     number of k points=     1  Methfessel-Paxton smearing, width (Ry)=  0.0200
                       cart. coord. in units 2pi/alat
        k(    1) = (   0.0000000   0.0000000   0.0000000), wk =   2.0000000

     Dense  grid: 37295885 G-vectors     FFT dimensions: ( 576, 576, 243)

     Smooth grid: 15452175 G-vectors     FFT dimensions: ( 405, 405, 180)

     Estimated max dynamical RAM per process >       7.91 GB

     Estimated total dynamical RAM >     506.48 GB

     Check: negative core charge=   -0.000001

     Initial potential from superposition of free atoms

     starting charge     798.9897, renormalised to     799.0000

     negative rho (up, down):  2.374E-02 0.000E+00
     Starting wfcs are  788 randomized atomic wfcs
     Checking if some PAW data can be deallocated... 

     total cpu time spent up to now is      106.5 secs

     Self-consistent Calculation

     iteration #  1     ecut=    45.33 Ry     beta= 0.30
     Davidson diagonalization with overlap
     ethr =  1.00E-02,  avg # of iterations =  2.0

     negative rho (up, down):  9.886E-03 0.000E+00

     total cpu time spent up to now is      274.0 secs

     total energy              =   -3888.49452787 Ry
     estimated scf accuracy    <      19.59511221 Ry

     iteration #  2     ecut=    45.33 Ry     beta= 0.30
     Davidson diagonalization with overlap
     ethr =  2.45E-03,  avg # of iterations =  1.0

     negative rho (up, down):  1.179E-02 0.000E+00

     total cpu time spent up to now is      397.8 secs

     total energy              =   -3886.43968925 Ry
     estimated scf accuracy    <      12.45647316 Ry

     iteration #  3     ecut=    45.33 Ry     beta= 0.30
     Davidson diagonalization with overlap
     ethr =  1.56E-03,  avg # of iterations =  1.0

     negative rho (up, down):  8.187E-03 0.000E+00

     total cpu time spent up to now is      521.4 secs

     total energy              =   -3884.91870873 Ry
     estimated scf accuracy    <       8.24607074 Ry

     iteration #  4     ecut=    45.33 Ry     beta= 0.30
     Davidson diagonalization with overlap
     ethr =  1.03E-03,  avg # of iterations =  1.0

     negative rho (up, down):  5.827E-03 0.000E+00

     total cpu time spent up to now is      644.5 secs

     total energy              =   -3884.72119963 Ry
     estimated scf accuracy    <       3.13161690 Ry

     iteration #  5     ecut=    45.33 Ry     beta= 0.30
     Davidson diagonalization with overlap
     ethr =  3.92E-04,  avg # of iterations =  2.0

     negative rho (up, down):  3.450E-03 0.000E+00

     total cpu time spent up to now is      776.6 secs

     total energy              =   -3884.78753471 Ry
     estimated scf accuracy    <       1.20660808 Ry

     iteration #  6     ecut=    45.33 Ry     beta= 0.30
     Davidson diagonalization with overlap
     ethr =  1.51E-04,  avg # of iterations =  2.0

     negative rho (up, down):  2.378E-03 0.000E+00

     total cpu time spent up to now is      907.6 secs

     total energy              =   -3884.74539281 Ry
     estimated scf accuracy    <       2.38524692 Ry

     iteration #  7     ecut=    45.33 Ry     beta= 0.30
     Davidson diagonalization with overlap
     ethr =  1.51E-04,  avg # of iterations =  1.0

     negative rho (up, down):  1.935E-03 0.000E+00

     total cpu time spent up to now is     1031.5 secs

     total energy              =   -3884.78463730 Ry
     estimated scf accuracy    <       0.54369382 Ry

     iteration #  8     ecut=    45.33 Ry     beta= 0.30
     Davidson diagonalization with overlap
     ethr =  6.80E-05,  avg # of iterations =  1.0

     negative rho (up, down):  1.263E-03 0.000E+00

     total cpu time spent up to now is     1155.6 secs

     total energy              =   -3884.77707735 Ry
     estimated scf accuracy    <       0.47820126 Ry

     iteration #  9     ecut=    45.33 Ry     beta= 0.30
     Davidson diagonalization with overlap
     ethr =  5.98E-05,  avg # of iterations =  1.0

     negative rho (up, down):  1.064E-03 0.000E+00

     total cpu time spent up to now is     1279.2 secs

     total energy              =   -3884.76860793 Ry
     estimated scf accuracy    <       0.36411245 Ry

     iteration # 10     ecut=    45.33 Ry     beta= 0.30
     Davidson diagonalization with overlap
     ethr =  4.56E-05,  avg # of iterations =  1.0

     negative rho (up, down):  1.210E-02 0.000E+00

     total cpu time spent up to now is     1402.8 secs

     total energy              =   -3884.75144932 Ry
     estimated scf accuracy    <       0.15966032 Ry

     iteration # 11     ecut=    45.33 Ry     beta= 0.30
     Davidson diagonalization with overlap
     ethr =  2.00E-05,  avg # of iterations = 11.0

     negative rho (up, down):  3.884E-02 0.000E+00

     total cpu time spent up to now is     1543.3 secs

     total energy              =   -3884.74675884 Ry
     estimated scf accuracy    <       0.22757970 Ry

     iteration # 12     ecut=    45.33 Ry     beta= 0.30
     Davidson diagonalization with overlap
     ethr =  2.00E-05,  avg # of iterations =  1.0

     negative rho (up, down):  8.250E-02 0.000E+00

     total cpu time spent up to now is     1666.9 secs

     total energy              =   -3884.75089368 Ry
     estimated scf accuracy    <       0.10304282 Ry

     iteration # 13     ecut=    45.33 Ry     beta= 0.30
     Davidson diagonalization with overlap
     ethr =  1.29E-05,  avg # of iterations =  1.0

     negative rho (up, down):  1.069E-01 0.000E+00

     total cpu time spent up to now is     1790.6 secs

     total energy              =   -3884.74654739 Ry
     estimated scf accuracy    <       0.07539036 Ry

     iteration # 14     ecut=    45.33 Ry     beta= 0.30
     Davidson diagonalization with overlap
     ethr =  9.44E-06,  avg # of iterations =  1.0

     negative rho (up, down):  2.766E-01 0.000E+00

     total cpu time spent up to now is     1914.7 secs

     total energy              =   -3884.74785668 Ry
     estimated scf accuracy    <       0.05494875 Ry

     iteration # 15     ecut=    45.33 Ry     beta= 0.30
     Davidson diagonalization with overlap
     ethr =  6.88E-06,  avg # of iterations =  1.0

     negative rho (up, down):  1.553E-01 0.000E+00

     total cpu time spent up to now is     2038.4 secs

     total energy              =   -3884.74390172 Ry
     estimated scf accuracy    <       0.03877748 Ry

     iteration # 16     ecut=    45.33 Ry     beta= 0.30
     Davidson diagonalization with overlap
     ethr =  4.85E-06,  avg # of iterations =  1.0

     negative rho (up, down):  2.982E-01 0.000E+00

     total cpu time spent up to now is     2162.3 secs

     total energy              =   -3884.74065521 Ry
     estimated scf accuracy    <       0.03017561 Ry

     iteration # 17     ecut=    45.33 Ry     beta= 0.30
     Davidson diagonalization with overlap
     ethr =  3.78E-06,  avg # of iterations =  2.0

     negative rho (up, down):  3.096E-01 0.000E+00

     total cpu time spent up to now is     2293.8 secs

     total energy              =   -3884.73988406 Ry
     estimated scf accuracy    <       0.02312568 Ry

     iteration # 18     ecut=    45.33 Ry     beta= 0.30
     Davidson diagonalization with overlap
     ethr =  2.89E-06,  avg # of iterations =  2.0

     negative rho (up, down):  3.478E-01 0.000E+00

     total cpu time spent up to now is     2425.2 secs

     total energy              =   -3884.73872476 Ry
     estimated scf accuracy    <       0.01525341 Ry

     iteration # 19     ecut=    45.33 Ry     beta= 0.30
     Davidson diagonalization with overlap
     ethr =  1.91E-06,  avg # of iterations = 19.0

     negative rho (up, down):  2.793E-01 0.000E+00

     total cpu time spent up to now is     2569.4 secs

     total energy              =   -3884.73673849 Ry
     estimated scf accuracy    <       0.01071387 Ry

     iteration # 20     ecut=    45.33 Ry     beta= 0.30
     Davidson diagonalization with overlap
     ethr =  1.34E-06,  avg # of iterations =  2.0

     negative rho (up, down):  2.388E-01 0.000E+00

     total cpu time spent up to now is     2700.7 secs

     total energy              =   -3884.73579854 Ry
     estimated scf accuracy    <       0.00795902 Ry

     iteration # 21     ecut=    45.33 Ry     beta= 0.30
     Davidson diagonalization with overlap
     ethr =  9.96E-07,  avg # of iterations =  1.0

     negative rho (up, down):  2.341E-01 0.000E+00

     total cpu time spent up to now is     2824.5 secs

     total energy              =   -3884.73473334 Ry
     estimated scf accuracy    <       0.00603870 Ry

     iteration # 22     ecut=    45.33 Ry     beta= 0.30
     Davidson diagonalization with overlap
     ethr =  7.56E-07,  avg # of iterations =  1.0

     negative rho (up, down):  2.359E-01 0.000E+00

     total cpu time spent up to now is     2948.1 secs

     total energy              =   -3884.73390831 Ry
     estimated scf accuracy    <       0.00411784 Ry

     iteration # 23     ecut=    45.33 Ry     beta= 0.30
     Davidson diagonalization with overlap
     ethr =  5.15E-07,  avg # of iterations =  1.0

     negative rho (up, down):  1.813E-01 0.000E+00

     total cpu time spent up to now is     3071.8 secs

     total energy              =   -3884.73286128 Ry
     estimated scf accuracy    <       0.00269008 Ry

     iteration # 24     ecut=    45.33 Ry     beta= 0.30
     Davidson diagonalization with overlap
     ethr =  3.37E-07,  avg # of iterations =  1.0

     negative rho (up, down):  1.038E-01 0.000E+00

     total cpu time spent up to now is     3195.6 secs

     total energy              =   -3884.73206355 Ry
     estimated scf accuracy    <       0.00184809 Ry

     iteration # 25     ecut=    45.33 Ry     beta= 0.30
     Davidson diagonalization with overlap
     ethr =  2.31E-07,  avg # of iterations =  2.0

     negative rho (up, down):  9.438E-02 0.000E+00

     total cpu time spent up to now is     3327.0 secs

     total energy              =   -3884.73206990 Ry
     estimated scf accuracy    <       0.00079768 Ry

     iteration # 26     ecut=    45.33 Ry     beta= 0.30
     Davidson diagonalization with overlap
     ethr =  9.98E-08,  avg # of iterations =  1.0

     negative rho (up, down):  9.604E-02 0.000E+00

     total cpu time spent up to now is     3450.8 secs

     total energy              =   -3884.73207725 Ry
     estimated scf accuracy    <       0.00053021 Ry

     iteration # 27     ecut=    45.33 Ry     beta= 0.30
     Davidson diagonalization with overlap
     ethr =  6.64E-08,  avg # of iterations =  1.0

     negative rho (up, down):  8.720E-02 0.000E+00

     total cpu time spent up to now is     3574.7 secs

     total energy              =   -3884.73208615 Ry
     estimated scf accuracy    <       0.00031403 Ry

     iteration # 28     ecut=    45.33 Ry     beta= 0.30
     Davidson diagonalization with overlap
     ethr =  3.93E-08,  avg # of iterations =  2.0

     negative rho (up, down):  7.996E-02 0.000E+00

     total cpu time spent up to now is     3706.4 secs

     total energy              =   -3884.73209179 Ry
     estimated scf accuracy    <       0.00014164 Ry

     iteration # 29     ecut=    45.33 Ry     beta= 0.30
     Davidson diagonalization with overlap
     ethr =  1.77E-08,  avg # of iterations =  1.0

     negative rho (up, down):  6.841E-02 0.000E+00

     total cpu time spent up to now is     3829.6 secs

     total energy              =   -3884.73208829 Ry
     estimated scf accuracy    <       0.00009513 Ry

     iteration # 30     ecut=    45.33 Ry     beta= 0.30
     Davidson diagonalization with overlap
     ethr =  1.19E-08,  avg # of iterations =  1.0

     negative rho (up, down):  6.554E-02 0.000E+00

     total cpu time spent up to now is     3952.9 secs

     total energy              =   -3884.73207946 Ry
     estimated scf accuracy    <       0.00004452 Ry

     iteration # 31     ecut=    45.33 Ry     beta= 0.30
     Davidson diagonalization with overlap
     ethr =  5.57E-09,  avg # of iterations =  1.0

     negative rho (up, down):  6.364E-02 0.000E+00

     total cpu time spent up to now is     4076.4 secs

     total energy              =   -3884.73207841 Ry
     estimated scf accuracy    <       0.00001844 Ry

     iteration # 32     ecut=    45.33 Ry     beta= 0.30
     Davidson diagonalization with overlap
     ethr =  2.31E-09,  avg # of iterations =  2.0

     negative rho (up, down):  6.334E-02 0.000E+00

     total cpu time spent up to now is     4207.9 secs

     total energy              =   -3884.73207742 Ry
     estimated scf accuracy    <       0.00001011 Ry

     iteration # 33     ecut=    45.33 Ry     beta= 0.30
     Davidson diagonalization with overlap
     ethr =  1.27E-09,  avg # of iterations =  1.0

     negative rho (up, down):  6.287E-02 0.000E+00

     total cpu time spent up to now is     4331.9 secs

     total energy              =   -3884.73207833 Ry
     estimated scf accuracy    <       0.00000533 Ry

     iteration # 34     ecut=    45.33 Ry     beta= 0.30
     Davidson diagonalization with overlap
     ethr =  6.67E-10,  avg # of iterations =  2.0

     negative rho (up, down):  6.307E-02 0.000E+00

     total cpu time spent up to now is     4463.9 secs

     total energy              =   -3884.73207770 Ry
     estimated scf accuracy    <       0.00000158 Ry

     iteration # 35     ecut=    45.33 Ry     beta= 0.30
     Davidson diagonalization with overlap
     ethr =  1.98E-10,  avg # of iterations =  2.0

     negative rho (up, down):  6.232E-02 0.000E+00

     total cpu time spent up to now is     4587.2 secs

     End of self-consistent calculation

          k = 0.0000 0.0000 0.0000 (****** PWs)   bands (ev):

   -24.2855 -24.0592 -24.0425 -23.9762 -23.9304 -23.8901 -23.8310 -23.7471
   -23.6715 -23.5740 -23.4513 -23.3440 -23.2124 -23.0568 -22.9076 -22.7387
   -22.6974 -22.6799 -22.6137 -22.5631 -22.5517 -22.4927 -22.4343 -22.3722
   -22.3405 -22.2536 -22.2176 -22.1314 -22.0750 -22.0064 -21.9304 -21.8677
   -21.7939 -21.6879 -21.6443 -21.5045 -21.4597 -21.3181 -21.2378 -21.1191
   -21.0137 -20.9098 -20.7816 -20.6857 -20.6198 -20.6034 -20.5584 -20.5380
   -20.4956 -20.4550 -20.4326 -20.3760 -20.3205 -20.2875 -20.2105 -20.1935
   -20.1126 -20.0613 -20.0242 -19.9461 -19.8978 -19.8479 -19.7705 -19.7391
   -19.6298 -19.5826 -19.5521 -19.4294 -19.3714 -19.3254 -19.2341 -19.1743
   -19.1653 -19.0823 -19.0263 -18.9749 -18.8594 -18.8299 -18.7829 -18.7562
   -18.6792 -18.6284 -18.6142 -18.5335 -18.4851 -18.4240 -18.4103 -18.3212
   -18.2818 -18.2297 -18.2189 -18.1978 -18.1834 -18.1729 -18.1614 -18.1170
   -17.9444 -17.8292 -17.7160 -17.6857 -17.6324 -17.4104 -17.2600 -17.1321
   -17.0152 -16.8515 -16.8152 -16.8073 -16.7924 -16.7352 -16.7299 -16.6596
   -16.6172 -16.6106 -16.5128 -16.5021 -16.4696 -16.4257 -16.3365 -16.3171
   -16.2200 -16.1783 -16.1390 -16.0951 -16.0431 -15.9916 -15.9604 -15.8830
   -15.8451 -15.8237 -15.7668 -15.7307 -15.7071 -15.6504 -15.5903 -15.5770
   -15.5225 -15.4651 -15.3574 -15.0846 -14.8916 -14.7293 -14.6198 -14.4744
   -14.3706 -14.3525 -14.3302 -14.2578 -14.2166 -14.2148 -14.1224 -14.1115
   -14.0975 -14.0733 -14.0658 -14.0417 -13.9925 -13.9611 -13.9425 -13.8924
   -13.8245 -13.7610 -13.7149 -13.6852 -13.5784 -13.5646 -13.4917 -13.4306
   -13.3935 -13.3787 -13.3185 -13.2845 -13.2664 -13.2370 -13.1758 -13.1525
   -13.1207 -13.0885 -12.9862 -12.9749 -12.9039 -12.8474 -12.8197 -12.7956
   -12.7513 -12.7131 -12.6849 -12.6294 -12.5130 -12.4974 -12.3792 -12.3206
   -12.2678 -12.2311 -12.2084 -12.1075 -12.1031 -12.0584 -12.0514 -11.9932
   -11.9783 -11.9605 -11.9302 -11.8985 -11.8918 -11.8678 -11.8579 -11.7811
   -11.7682 -11.7615 -11.7471 -11.7328 -11.7104 -11.6671 -11.6586 -11.6369
   -11.6239 -11.5984 -11.5736 -11.5658 -11.5289 -11.4829 -11.4776 -11.4648
   -11.4596 -11.4380 -11.4217 -11.3822 -11.3633 -11.3171 -11.3038 -11.2992
   -11.2456 -11.1889 -11.1712 -11.1068 -11.0617 -11.0287 -10.9976 -10.9675
   -10.9361 -10.9038 -10.8667 -10.8285 -10.7897 -10.7157 -10.6944 -10.6623
   -10.6070 -10.5775 -10.5697 -10.5446 -10.5152 -10.5132 -10.4633 -10.4372
   -10.4012 -10.3670 -10.3484 -10.3226 -10.3094 -10.2996 -10.2652 -10.2468
   -10.1917 -10.1792 -10.1580 -10.1438 -10.1319 -10.1216 -10.1055 -10.0883
   -10.0660 -10.0267  -9.9880  -9.9491  -9.9239  -9.8786  -9.7988  -9.7932
    -9.7541  -9.6908  -9.6575  -9.5830  -9.5545  -9.5194  -9.4538  -9.4434
    -9.3928  -9.3565  -9.3388  -9.2233  -9.1989  -9.1739  -9.1572  -9.0359
    -8.9664  -8.8389  -8.7173  -8.6535  -8.5508  -8.5191  -8.4705  -8.4681
    -8.4264  -8.3970  -8.3531  -8.3228  -8.2491  -8.2072  -8.1659  -8.1472
    -8.1037  -8.0588  -7.9663  -7.9526  -7.9087  -7.8847  -7.8772  -7.7794
    -7.7387  -7.7341  -7.6332  -7.6099  -7.5851  -7.4666  -7.4266  -7.3629
    -7.3000  -7.2471  -7.1795  -7.1723  -7.1631  -7.1475  -7.1235  -7.1201
    -7.0922  -7.0668  -7.0596  -7.0350  -7.0208  -6.9982  -6.9941  -6.9701
    -6.9570  -6.9441  -6.8968  -6.8839  -6.8672  -6.8449  -6.8445  -6.8287
    -6.8209  -6.8153  -6.8030  -6.7969  -6.7940  -6.7765  -6.7631  -6.7603
    -6.7578  -6.7417  -6.7302  -6.7239  -6.7121  -6.6934  -6.6646  -6.6533
    -6.6529  -6.6388  -6.6184  -6.6133  -6.6112  -6.5845  -6.5699  -6.5529
    -6.5285  -6.5036  -6.4279  -6.4099  -6.3330  -6.3044  -6.2730  -6.2627
    -6.2462  -6.2051  -6.1614  -6.1202  -6.0890  -6.0654  -6.0071  -5.9607
    -5.9458  -5.9213  -5.8497  -5.8279  -5.8006  -5.7469  -5.7198  -5.6977
    -5.6921  -5.6414  -5.6174  -5.5908  -5.5520  -5.5345  -5.4841  -5.4541
    -5.4270  -5.3884  -5.3225  -5.3039  -5.2555  -5.1759  -5.1178  -5.1041
    -4.9809  -4.9714  -4.8881  -4.8524  -4.8306  -4.7815  -4.7450  -4.6661
    -4.6523  -4.6185  -4.5748  -4.5548  -4.5205  -4.4952  -4.4005  -4.3085
    -4.2608  -4.2221  -4.2192  -4.0523  -3.8264  -3.5747  -3.3618  -3.2949
    -3.1996  -3.1269  -3.0413  -3.0292  -3.0197  -3.0045  -2.9937  -2.9830
    -2.9659  -2.9446  -2.9245  -2.9029  -2.8717  -2.8208  -2.7820  -2.7155
    -2.6977  -2.6409  -2.5641  -2.4533  -2.4265  -2.4102  -2.3041  -2.2175
    -2.1685  -2.0664  -2.0269  -1.9933  -1.9369  -1.8304  -1.7792  -1.7193
    -1.7099  -1.5250  -1.3921  -1.3427  -1.2515  -1.1911  -1.0725  -1.0450

     the Fermi energy is    -5.7064 ev

!    total energy              =   -3884.73207800 Ry
     total all-electron energy =    -18796.255867 Ry
     estimated scf accuracy    <       0.00000088 Ry
     smearing contrib. (-TS)   =      -0.01066854 Ry
     internal energy E=F+TS    =   -3884.72140946 Ry

     The total energy is F=E-TS. E is the sum of the following terms:
     one-electron contribution =  -43452.85892134 Ry
     hartree contribution      =   21807.78165557 Ry
     xc contribution           =    -918.30126308 Ry
     ewald contribution        =   20079.68885591 Ry
     DFT-D3 Dispersion         =      -0.42206330 Ry
     one-center paw contrib.   =   -1400.60967321 Ry

     convergence has been achieved in  35 iterations

     negative rho (up, down):  6.232E-02 0.000E+00

     Forces acting on atoms (cartesian axes, Ry/au):

     atom    1 type  1   force =     0.03131809    0.12996313   -0.03818987
     atom    2 type  1   force =    -0.15711698    0.22871190   -0.07420434
     atom    3 type  1   force =    -0.29489542    0.15602299    0.03673447
     atom    4 type  1   force =    -0.29499060   -0.02993093    0.04334230
     atom    5 type  1   force =    -0.20826252   -0.19954454    0.04336033
     atom    6 type  1   force =    -0.02190113   -0.28574190    0.04232310
     atom    7 type  1   force =     0.15482613   -0.24170375    0.04258008
     atom    8 type  1   force =     0.25079652   -0.14226558    0.04306327
     atom    9 type  1   force =     0.28794320   -0.02634228    0.04315117
     atom   10 type  1   force =     0.27155137    0.09797218    0.04283620
     atom   11 type  1   force =     0.18304502    0.21865086    0.04152814
     atom   12 type  1   force =     0.02646233    0.28160927    0.04466948
     atom   13 type  1   force =    -0.08608675    0.27558332    0.04535569
     atom   14 type  1   force =    -0.10969768    0.27215006    0.04546771
     atom   15 type  1   force =    -0.12432344    0.26973356    0.04517066
     atom   16 type  1   force =    -0.14859248    0.25719004   -0.05965966
     atom   17 type  1   force =    -0.00960114   -0.17278599    0.12750427
     atom   18 type  1   force =     0.17811795   -0.28999903   -0.02453197
     atom   19 type  1   force =     0.27323014   -0.13544984    0.04241596
     atom   20 type  1   force =     0.29253991    0.02732812    0.04353226
     atom   21 type  1   force =     0.21004288    0.19730528    0.04251235
     atom   22 type  1   force =     0.02501768    0.28585079    0.04275387
     atom   23 type  1   force =    -0.15303328    0.24349706    0.04285654
     atom   24 type  1   force =    -0.25025039    0.14400987    0.04297185
     atom   25 type  1   force =    -0.28818868    0.02774589    0.04316173
     atom   26 type  1   force =    -0.27208506   -0.09621030    0.04280776
     atom   27 type  1   force =    -0.18461803   -0.21535220    0.04392818
     atom   28 type  1   force =    -0.02878906   -0.28258223    0.04395343
     atom   29 type  1   force =     0.08578457   -0.27762692    0.04457595
     atom   30 type  1   force =     0.11113350   -0.27593491    0.04417755
     atom   31 type  1   force =     0.13597252   -0.29558853    0.04292089
     atom   32 type  1   force =     0.13789775   -0.23340100   -0.04518578
     atom   33 type  1   force =    -0.05515492    0.09181031   -0.10365511
     atom   34 type  1   force =    -0.00677988    0.00347013    0.07579058
     atom   35 type  1   force =    -0.03067241    0.01104778   -0.04876512
     atom   36 type  1   force =    -0.02731751   -0.00299874   -0.04392828
     atom   37 type  1   force =    -0.01968559   -0.01816755   -0.04239236
     atom   38 type  1   force =    -0.00240511   -0.02705180   -0.04201115
     atom   39 type  1   force =     0.01326337   -0.02221734   -0.04199843
     atom   40 type  1   force =     0.02181834   -0.01342884   -0.04167383
     atom   41 type  1   force =     0.02602487   -0.00307382   -0.04173584
     atom   42 type  1   force =     0.02481348    0.00814399   -0.04156538
     atom   43 type  1   force =     0.01832422    0.01893188   -0.04246204
     atom   44 type  1   force =     0.00419897    0.02379519   -0.04291530
     atom   45 type  1   force =    -0.00703368    0.02264195   -0.04236935
     atom   46 type  1   force =    -0.00857770    0.02313105   -0.03942771
     atom   47 type  1   force =    -0.05197616    0.10033764   -0.09197948
     atom   48 type  1   force =    -0.04156379    0.06590011    0.08108474
     atom   49 type  1   force =     0.02460568    0.00057519    0.06510242
     atom   50 type  1   force =     0.09008488   -0.07373849   -0.09201085
     atom   51 type  1   force =     0.02768209    0.00337991   -0.03941366
     atom   52 type  1   force =     0.01873430    0.01925381   -0.04239838
     atom   53 type  1   force =     0.00130087    0.02665846   -0.04232711
     atom   54 type  1   force =    -0.01477336    0.02226672   -0.04192083
     atom   55 type  1   force =    -0.02329506    0.01168887   -0.04172281
     atom   56 type  1   force =    -0.02551365    0.00200823   -0.04191420
     atom   57 type  1   force =    -0.02480126   -0.00906648   -0.04180301
     atom   58 type  1   force =    -0.01759618   -0.02056890   -0.04094364
     atom   59 type  1   force =    -0.00255856   -0.02670112   -0.04342086
     atom   60 type  1   force =     0.00866564   -0.02257321   -0.04319857
     atom   61 type  1   force =     0.00968875   -0.02335655   -0.04415787
     atom   62 type  1   force =     0.01262665   -0.02671091   -0.05456626
     atom   63 type  1   force =     0.00931564   -0.01548706    0.08094936
     atom   64 type  1   force =     0.04757326   -0.07489391   -0.03508259
     atom   65 type  1   force =    -0.02442498   -0.03880366    0.01844270
     atom   66 type  1   force =    -0.00770214   -0.01062590   -0.03102991
     atom   67 type  1   force =    -0.02639608    0.01875344    0.02041682
     atom   68 type  1   force =    -0.03615388    0.00512050   -0.00313144
     atom   69 type  1   force =    -0.03026474   -0.02007479   -0.00181283
     atom   70 type  1   force =    -0.00921911   -0.03553250   -0.00175648
     atom   71 type  1   force =     0.01508981   -0.03357393   -0.00233731
     atom   72 type  1   force =     0.02986281   -0.02185605   -0.00312895
     atom   73 type  1   force =     0.03628294   -0.00739407   -0.00293323
     atom   74 type  1   force =     0.03580575    0.00796937   -0.00258855
     atom   75 type  1   force =     0.02702559    0.02322975   -0.00212288
     atom   76 type  1   force =     0.00727026    0.03251973   -0.00107937
     atom   77 type  1   force =    -0.00876971    0.03498059   -0.00344693
     atom   78 type  1   force =    -0.01426378    0.03463208   -0.00243876
     atom   79 type  1   force =    -0.01434004    0.03487545    0.00485052
     atom   80 type  1   force =     0.00116398   -0.00439891   -0.02889481
     atom   81 type  1   force =    -0.00297103    0.03259373    0.04832181
     atom   82 type  1   force =    -0.00367343    0.01441080   -0.02182206
     atom   83 type  1   force =     0.03512866   -0.01011378    0.00031027
     atom   84 type  1   force =     0.03489720    0.00813842   -0.00105215
     atom   85 type  1   force =     0.02150334    0.02999383   -0.00192332
     atom   86 type  1   force =    -0.00324348    0.03635042   -0.00191074
     atom   87 type  1   force =    -0.02395043    0.02824438   -0.00249867
     atom   88 type  1   force =    -0.03389944    0.01487593   -0.00314472
     atom   89 type  1   force =    -0.03710757   -0.00062223   -0.00300698
     atom   90 type  1   force =    -0.03322002   -0.01675584   -0.00233925
     atom   91 type  1   force =    -0.01851126   -0.02992792   -0.00217461
     atom   92 type  1   force =     0.00138671   -0.03339133   -0.00195492
     atom   93 type  1   force =     0.01244031   -0.03294995   -0.00395614
     atom   94 type  1   force =     0.01383541   -0.03447977   -0.00573286
     atom   95 type  1   force =     0.01660427   -0.03204041    0.01523034
     atom   96 type  1   force =    -0.00536079    0.00887858   -0.08007499
     atom   97 type  1   force =     0.02478519   -0.00730319   -0.03813206
     atom   98 type  1   force =    -0.01185183    0.01418191    0.00368763
     atom   99 type  1   force =    -0.03825832    0.01621435   -0.00241703
     atom  100 type  1   force =    -0.03818526   -0.00915797    0.00046905
     atom  101 type  1   force =    -0.02150888   -0.02999515    0.00163422
     atom  102 type  1   force =     0.00396685   -0.03666507    0.00231024
     atom  103 type  1   force =     0.02384017   -0.02762888    0.00266156
     atom  104 type  1   force =     0.03400777   -0.01507582    0.00309579
     atom  105 type  1   force =     0.03719998    0.00037838    0.00274483
     atom  106 type  1   force =     0.03262880    0.01595822    0.00211660
     atom  107 type  1   force =     0.02058794    0.02995345    0.00228807
     atom  108 type  1   force =    -0.00097595    0.03482300    0.00247911
     atom  109 type  1   force =    -0.01249726    0.03473486    0.00241672
     atom  110 type  1   force =    -0.01367335    0.03269547    0.00312740
     atom  111 type  1   force =    -0.00868407    0.01761451   -0.00628956
     atom  112 type  1   force =    -0.00162715    0.00356276    0.01782280
     atom  113 type  1   force =    -0.00215239   -0.01707289    0.01787450
     atom  114 type  1   force =     0.02134939   -0.01117211   -0.01206441
     atom  115 type  1   force =     0.03672770    0.00017869    0.00269217
     atom  116 type  1   force =     0.03121832    0.02129974    0.00158242
     atom  117 type  1   force =     0.00932556    0.03558354    0.00165583
     atom  118 type  1   force =    -0.01495658    0.03336448    0.00219897
     atom  119 type  1   force =    -0.03025679    0.02121938    0.00295710
     atom  120 type  1   force =    -0.03593851    0.00727764    0.00296240
     atom  121 type  1   force =    -0.03635629   -0.00820506    0.00276377
     atom  122 type  1   force =    -0.02817353   -0.02392920    0.00221935
     atom  123 type  1   force =    -0.00777215   -0.03609768    0.00214273
     atom  124 type  1   force =     0.00890715   -0.03413448    0.00201738
     atom  125 type  1   force =     0.01421655   -0.03478877    0.00147806
     atom  126 type  1   force =     0.01390570   -0.03698701   -0.00960997
     atom  127 type  1   force =     0.01099175   -0.02581120    0.01148455
     atom  128 type  1   force =     0.00367851   -0.00701734    0.01278779
     atom  129 type  1   force =     0.02493107    0.01249401   -0.00936440
     atom  130 type  1   force =    -0.01529716    0.04575455   -0.00756513
     atom  131 type  1   force =     0.00157903   -0.00195435    0.03717523
     atom  132 type  1   force =    -0.02312332    0.00563521    0.03957947
     atom  133 type  1   force =    -0.02461778   -0.01054615    0.04353315
     atom  134 type  1   force =    -0.01212554   -0.02521387    0.04196615
     atom  135 type  1   force =     0.00654819   -0.02565225    0.04168690
     atom  136 type  1   force =     0.01848933   -0.01809777    0.04161189
     atom  137 type  1   force =     0.02463207   -0.00809407    0.04151817
     atom  138 type  1   force =     0.02601374    0.00261853    0.04162846
     atom  139 type  1   force =     0.02221628    0.01416713    0.04212875
     atom  140 type  1   force =     0.01092170    0.02196393    0.04328637
     atom  141 type  1   force =    -0.00231302    0.02372112    0.04208743
     atom  142 type  1   force =    -0.01064576    0.02868916    0.04154991
     atom  143 type  1   force =    -0.01746751    0.03851659    0.04621728
     atom  144 type  1   force =    -0.01682424    0.03209613   -0.00989864
     atom  145 type  1   force =    -0.01801573    0.00031503    0.07618350
     atom  146 type  1   force =     0.02487180   -0.02584320   -0.01543923
     atom  147 type  1   force =     0.03028776   -0.00940741    0.05169735
     atom  148 type  1   force =     0.02895061    0.01145307    0.04368402
     atom  149 type  1   force =     0.01133181    0.02561793    0.04261371
     atom  150 type  1   force =    -0.00782369    0.02566601    0.04180787
     atom  151 type  1   force =    -0.02000566    0.01750772    0.04128255
     atom  152 type  1   force =    -0.02480898    0.00717596    0.04154187
     atom  153 type  1   force =    -0.02551323   -0.00389779    0.04145436
     atom  154 type  1   force =    -0.02180951   -0.01534341    0.04138659
     atom  155 type  1   force =    -0.00846037   -0.02428435    0.04141301
     atom  156 type  1   force =     0.00550073   -0.02471704    0.04228824
     atom  157 type  1   force =     0.00846337   -0.02201837    0.04299371
     atom  158 type  1   force =     0.00941640   -0.02079970    0.03611015
     atom  159 type  1   force =     0.00016545   -0.00754677    0.01608082
     atom  160 type  1   force =     0.01846537   -0.02359981   -0.02611644
     atom  161 type  1   force =    -0.01303843    0.03277683   -0.17531400
     atom  162 type  1   force =    -0.06472264    0.08266963    0.08809271
     atom  163 type  1   force =    -0.26473793    0.04565260   -0.05166095
     atom  164 type  1   force =    -0.27085686   -0.11862668   -0.04640609
     atom  165 type  1   force =    -0.12403193   -0.26172418   -0.04272824
     atom  166 type  1   force =     0.07463938   -0.27663888   -0.04185476
     atom  167 type  1   force =     0.21242939   -0.19435735   -0.04248139
     atom  168 type  1   force =     0.27585345   -0.08640201   -0.04290789
     atom  169 type  1   force =     0.28737502    0.03466877   -0.04276918
     atom  170 type  1   force =     0.23847328    0.16092964   -0.04201590
     atom  171 type  1   force =     0.10901723    0.26226741   -0.04205946
     atom  172 type  1   force =    -0.04416286    0.28081141   -0.04397133
     atom  173 type  1   force =    -0.10594023    0.27415040   -0.04181604
     atom  174 type  1   force =    -0.10801069    0.26168052   -0.03005594
     atom  175 type  1   force =    -0.00671282    0.00956116   -0.04736748
     atom  176 type  1   force =    -0.03282317    0.05318222    0.07636063
     atom  177 type  1   force =     0.02734001   -0.06963035    0.09615051
     atom  178 type  1   force =     0.00887479   -0.00949035   -0.06756727
     atom  179 type  1   force =     0.27178210   -0.06224183   -0.03347581
     atom  180 type  1   force =     0.27057012    0.11573128   -0.04193488
     atom  181 type  1   force =     0.12621186    0.25941552   -0.04242850
     atom  182 type  1   force =    -0.07159881    0.27748599   -0.04236928
     atom  183 type  1   force =    -0.21150530    0.19573903   -0.04274377
     atom  184 type  1   force =    -0.27500338    0.08763555   -0.04294039
     atom  185 type  1   force =    -0.28680595   -0.03332116   -0.04283889
     atom  186 type  1   force =    -0.23875359   -0.15845839   -0.04266981
     atom  187 type  1   force =    -0.11187263   -0.26032873   -0.04302734
     atom  188 type  1   force =     0.04095221   -0.28307515   -0.04299234
     atom  189 type  1   force =     0.10466342   -0.27426894   -0.04477337
     atom  190 type  1   force =     0.10527752   -0.25359037   -0.04365762
     atom  191 type  1   force =     0.05489893   -0.10300961    0.09950777
     atom  192 type  1   force =    -0.00750803    0.01301303   -0.01519054
     atom  193 type  2   force =     0.00007830   -0.01817333    0.00833884
     atom  194 type  3   force =     0.00136243    0.00241866   -0.00636639
     atom  195 type  3   force =     0.00740099    0.00478124   -0.00160030
     atom  196 type  3   force =    -0.00771141    0.00464854   -0.00561223
     atom  197 type  3   force =     0.00310569    0.00884665   -0.00246445

     Total force =     1.685123     Total SCF correction =     0.001004

     BFGS Geometry Optimization
     Energy error            =      0.0E+00 Ry
     Gradient error          =      2.9E-01 Ry/Bohr

     number of scf cycles    =   1
     number of bfgs steps    =   0

     energy             new  =   -3884.7320780024 Ry

     new trust radius        =       0.3412143932 bohr
     new conv_thr            =       0.0000010000 Ry


ATOMIC_POSITIONS (angstrom)
C               30.4537664756       21.9105900221        1.0806132788
C               29.9989921174       25.8666296901        7.3569855580
C               27.2324084417       28.8769231601        0.0179695737    0   0   0
C               23.1842920721       30.0662509373        0.0171169542    0   0   0
C               19.1661798195       28.8015785909        0.0139660156    0   0   0
C               16.9078558270       25.2726117551        0.0131251452    0   0   0
C               17.5109722178       21.1124548595        0.0121721040    0   0   0
C               20.3619411575       17.9823600709        0.0118061334    0   0   0
C               24.3091265243       16.4190661989        0.0108451698    0   0   0
C               28.5500075909       16.6238126688        0.0093827525    0   0   0
C               32.2478668190       18.6804381467        0.0086398353    0   0   0
C               34.2723701106       22.3703930714        0.0069866670    0   0   0
C               33.9954114585       26.5929906427        0.0065072083    0   0   0
C               32.5577418032       30.6105005714        0.0053494007    0   0   0
C               30.9410803883       34.5580950653        0.0088053561    0   0   0
C               28.9166523375       38.5205729980        7.3679328134
C               30.7311720896       22.9453981510        0.1998662222    0   0   0
C               29.4228033856       26.8057956092        7.3919999025
C               25.9628771329       29.5200672808        0.0179423026    0   0   0
C               21.7646280812       29.9321529434        0.0156112086    0   0   0
C               18.1315169709       27.8219232482        0.0137042636    0   0   0
C               16.7912570834       23.8528728864        0.0124334577    0   0   0
C               18.2747815938       19.9096888172        0.0121896666    0   0   0
C               21.5985924225       17.2753149142        0.0114852923    0   0   0
C               25.7275810495       16.2853839619        0.0102933055    0   0   0
C               29.8912357576       17.1031404051        0.0089989290    0   0   0
C               33.1709849467       19.7642198148        0.0083183218    0   0   0
C               34.4102476460       23.7862434732        0.0065638659    0   0   0
C               33.5721785028       27.9511568862        0.0060836325    0   0   0
C               32.0253120384       31.9302958858        0.0051827615    0   0   0
C               30.3486144465       35.8529941478        0.0114293296    0   0   0
C               28.3211727151       39.5017337163        7.3426715449
C               30.9695675257       23.9919728001        1.1850153604
C               28.9077225103       27.5453910717        1.2800217234
C               25.2764786190       29.7515269114        1.2269444373
C               21.0572565023       29.7566403684        1.2254427631
C               17.6995446924       27.2365734738        1.2254187717
C               16.8556580243       23.1278856439        1.2244087942
C               18.7431424166       19.3537849255        1.2242067152
C               22.2635949579       16.9828520712        1.2235550929
C               26.4546492645       16.2906684894        1.2222396331
C               30.5441420047       17.4227473745        1.2210590340
C               33.5678750783       20.3733095611        1.2197745012
C               34.3969456681       24.5096445460        1.2181534134
C               33.3286073559       28.6327225183        1.2175524104
C               31.7567849924       32.6002202217        1.2188299485
C               29.9974055687       36.5586587177        1.1900875823
C               27.8315861481       40.2861820666        1.2818197455
C               30.5444106192       25.2610348568        1.2698412940
C               27.8849876980       28.4439562392        1.1975283096
C               23.9091504412       30.0205954890        1.2309222093
C               19.7741238410       29.2016405384        1.2257837358
C               17.0952897787       25.9756302274        1.2250657501
C               17.2147658289       21.7769347366        1.2243697678
C               19.7726777334       18.4079211149        1.2240331773
C               23.5968923379       16.5618782542        1.2230495339
C               27.8424782645       16.4562850722        1.2215159934
C               31.7086991578       18.1946411981        1.2217484568
C               34.1112313058       21.6618183395        1.2181979563
C               34.1793164104       25.8916674774        1.2174855207
C               32.8272096966       29.9381304401        1.2163042196
C               31.2281565775       33.8900238010        1.2107394592
C               29.3514128650       37.7601332354        1.2812605950
C               27.1640006487       41.3408855744        1.2200599975
C               30.8054037042       21.9056686977        2.4919855521
C               30.2465135346       25.9065902211        2.4670713715
C               27.2324688080       28.8869795399        2.4954422443
C               23.1623178930       30.0480616582        2.4825556604
C               19.1502202010       28.7905515115        2.4811791495
C               16.9033077545       25.2538434535        2.4802593742
C               17.5201542796       21.0952806618        2.4792272710
C               20.3775421306       17.9708000948        2.4783469203
C               24.3285769844       16.4155954881        2.4774590413
C               28.5689812068       16.6277510510        2.4760341787
C               32.2728844608       18.6845335182        2.4753823269
C               34.2959979310       22.3843544483        2.4737030286
C               33.9988819889       26.6130788140        2.4720414229
C               32.5530778180       30.6302861208        2.4722765528
C               30.9423402548       34.5807219321        2.4726092812
C               29.0094615735       38.3897068986        2.4663119451
C               31.2415268413       23.3457753322        2.5083938710
C               29.4046581741       27.0504272698        2.4719511029
C               25.9855389884       29.4964425785        2.4853990890
C               21.7828694804       29.9297933839        2.4827174995
C               18.1425746183       27.8382445725        2.4808652737
C               16.7888562899       23.8720980505        2.4796350779
C               18.2620461447       19.9243504412        2.4791173860
C               21.5806220635       17.2832450416        2.4779895042
C               25.7080794314       16.2843916803        2.4769435326
C               29.8741808504       17.0932186024        2.4755287669
C               33.1771988162       19.7375370563        2.4746658444
C               34.4334765370       23.7671944211        2.4730272642
C               33.5814399768       27.9340095405        2.4715377464
C               32.0376271887       31.9140725799        2.4708277531
C               30.3708019364       35.8426148655        2.4742267131
C               28.2526431004       39.6332637116        2.4725525919
C               31.0115419835       23.9395469119        3.7060320921
C               28.9020317508       27.5475199459        3.7297801001
C               25.2660706655       29.7310972655        3.7162490618
C               21.0512072464       29.7509919526        3.7177971663
C               17.6980826374       27.2305401705        3.7167986758
C               16.8591103338       23.1228829724        3.7157895926
C               18.7483658966       19.3504226983        3.7159618054
C               22.2698161215       16.9820384267        3.7152633700
C               26.4604006274       16.2928270111        3.7139627343
C               30.5480196013       17.4269396221        3.7116582166
C               33.5692504936       20.3790928847        3.7103088237
C               34.3947439760       24.5157448519        3.7090432330
C               33.3260487550       28.6401128815        3.7092755766
C               31.7591337587       32.6117087174        3.7089712704
C               30.0644748052       36.5028197980        3.6928131486
C               27.9291521474       40.1756428599        3.7625325034
C               30.5295944862       25.2513819850        3.7409791768
C               27.8429008605       28.4674297421        3.7161466181
C               23.9105919253       29.9986035728        3.7191429448
C               19.7804619358       29.2021963181        3.7176492390
C               17.0993357360       25.9804668664        3.7164154582
C               17.2145540108       21.7829151810        3.7157350199
C               19.7684550364       18.4121687956        3.7157514938
C               23.5912728240       16.5649427126        3.7148154872
C               27.8362713284       16.4568766973        3.7130834021
C               31.7028393771       18.1930144563        3.7111906407
C               34.1079710119       21.6566914280        3.7093248851
C               34.1802047284       25.8852552612        3.7091854229
C               32.8308211946       29.9319509427        3.7089149627
C               31.2368885843       33.8921861299        3.7008892730
C               29.4112171178       37.7336032833        3.6950717865
C               27.2100812349       41.3083733875        4.3181167291
C               30.4495101544       21.8496890804        3.8593559381
C               30.0733392967       25.7692683562        4.9717800505
C               27.2271876770       28.8634067015        4.9697017612
C               23.1704571599       30.0551547504        4.9716859750
C               19.1528200621       28.7959165070        4.9738131137
C               16.9020342468       25.2592473322        4.9716791380
C               17.5149415494       21.0991349032        4.9707453816
C               20.3713575026       17.9724409509        4.9701726325
C               24.3221657249       16.4151731390        4.9691979736
C               28.5637561754       16.6248382985        4.9674123731
C               32.2599073261       18.6878899188        4.9666135538
C               34.2778917753       22.3816825018        4.9648789195
C               33.9949405417       26.6056476189        4.9639061926
C               32.5537874593       30.6272574260        4.9634357718
C               30.9431301351       34.5849285166        4.9656485641
C               29.0653805241       38.3373356335        4.9343168718
C               30.7214373715       22.9453902559        4.8062439604
C               29.3407762116       26.9442084031        4.9592695467
C               25.9722817167       29.4967090606        4.9777627519
C               21.7794362847       29.9336807917        4.9742242169
C               18.1375380620       27.8352222737        4.9728063902
C               16.7879266287       23.8665847050        4.9709973732
C               18.2644598241       19.9191447622        4.9705490226
C               21.5853356914       17.2790908558        4.9697661905
C               25.7139592465       16.2837001133        4.9686590036
C               29.8796055723       17.0945093689        4.9664271771
C               33.1670602092       19.7512723495        4.9653248345
C               34.4137052869       23.7731029540        4.9641733390
[...]

     iteration #  5     ecut=    45.33 Ry     beta= 0.30
     Davidson diagonalization with overlap
     ethr =  7.53E-07,  avg # of iterations =  1.0

     negative rho (up, down):  6.223E-02 0.000E+00

     total cpu time spent up to now is    84496.5 secs

     total energy              =   -3886.27410625 Ry
     estimated scf accuracy    <       0.00026564 Ry

     iteration #  6     ecut=    45.33 Ry     beta= 0.30
     Davidson diagonalization with overlap
     ethr =  3.32E-08,  avg # of iterations =  3.0

     negative rho (up, down):  6.218E-02 0.000E+00

     total cpu time spent up to now is    84629.0 secs

     total energy              =   -3886.27410554 Ry
     estimated scf accuracy    <       0.00045738 Ry

     iteration #  7     ecut=    45.33 Ry     beta= 0.30
     Davidson diagonalization with overlap
     ethr =  3.32E-08,  avg # of iterations =  2.0

     negative rho (up, down):  6.216E-02 0.000E+00

     total cpu time spent up to now is    84761.1 secs

     total energy              =   -3886.27411557 Ry
     estimated scf accuracy    <       0.00019398 Ry

     iteration #  8     ecut=    45.33 Ry     beta= 0.30
     Davidson diagonalization with overlap
     ethr =  2.43E-08,  avg # of iterations =  1.0

     negative rho (up, down):  6.219E-02 0.000E+00

     total cpu time spent up to now is    84884.4 secs

     total energy              =   -3886.27412099 Ry
     estimated scf accuracy    <       0.00004178 Ry

     iteration #  9     ecut=    45.33 Ry     beta= 0.30
     Davidson diagonalization with overlap
     ethr =  5.23E-09,  avg # of iterations =  2.0

     negative rho (up, down):  6.224E-02 0.000E+00

     total cpu time spent up to now is    85015.6 secs

     total energy              =   -3886.27412222 Ry
     estimated scf accuracy    <       0.00002401 Ry

     Maximum CPU time exceeded

     max_seconds     =   85000.00
     elapsed seconds =   85014.98
     Calculation stopped in scf loop at iteration #     9

===================================================================================
=   BAD TERMINATION OF ONE OF YOUR APPLICATION PROCESSES
=   RANK 0 PID 2604809 RUNNING AT cn004
=   KILLED BY SIGNAL: 9 (Killed)
===================================================================================

===================================================================================
=   BAD TERMINATION OF ONE OF YOUR APPLICATION PROCESSES
=   RANK 1 PID 2604810 RUNNING AT cn004
=   KILLED BY SIGNAL: 9 (Killed)
===================================================================================

===================================================================================
=   BAD TERMINATION OF ONE OF YOUR APPLICATION PROCESSES
=   RANK 2 PID 2604811 RUNNING AT cn004
=   KILLED BY SIGNAL: 9 (Killed)
===================================================================================

===================================================================================
=   BAD TERMINATION OF ONE OF YOUR APPLICATION PROCESSES
=   RANK 3 PID 2604812 RUNNING AT cn004
=   KILLED BY SIGNAL: 9 (Killed)
===================================================================================

===================================================================================
=   BAD TERMINATION OF ONE OF YOUR APPLICATION PROCESSES
=   RANK 4 PID 2604813 RUNNING AT cn004
=   KILLED BY SIGNAL: 9 (Killed)
===================================================================================

===================================================================================
=   BAD TERMINATION OF ONE OF YOUR APPLICATION PROCESSES
=   RANK 5 PID 2604814 RUNNING AT cn004
=   KILLED BY SIGNAL: 9 (Killed)
===================================================================================

===================================================================================
=   BAD TERMINATION OF ONE OF YOUR APPLICATION PROCESSES
=   RANK 6 PID 2604815 RUNNING AT cn004
=   KILLED BY SIGNAL: 9 (Killed)
===================================================================================

===================================================================================
=   BAD TERMINATION OF ONE OF YOUR APPLICATION PROCESSES
=   RANK 7 PID 2604816 RUNNING AT cn004
=   KILLED BY SIGNAL: 9 (Killed)
===================================================================================

===================================================================================
=   BAD TERMINATION OF ONE OF YOUR APPLICATION PROCESSES
=   RANK 8 PID 2604817 RUNNING AT cn004
=   KILLED BY SIGNAL: 9 (Killed)
===================================================================================

===================================================================================
=   BAD TERMINATION OF ONE OF YOUR APPLICATION PROCESSES
=   RANK 10 PID 2604819 RUNNING AT cn004
=   KILLED BY SIGNAL: 9 (Killed)
===================================================================================

===================================================================================
=   BAD TERMINATION OF ONE OF YOUR APPLICATION PROCESSES
=   RANK 11 PID 2604820 RUNNING AT cn004
=   KILLED BY SIGNAL: 9 (Killed)
===================================================================================

===================================================================================
=   BAD TERMINATION OF ONE OF YOUR APPLICATION PROCESSES
=   RANK 12 PID 2604821 RUNNING AT cn004
=   KILLED BY SIGNAL: 9 (Killed)
===================================================================================

===================================================================================
=   BAD TERMINATION OF ONE OF YOUR APPLICATION PROCESSES
=   RANK 13 PID 2604822 RUNNING AT cn004
=   KILLED BY SIGNAL: 9 (Killed)
===================================================================================

===================================================================================
=   BAD TERMINATION OF ONE OF YOUR APPLICATION PROCESSES
=   RANK 14 PID 2604823 RUNNING AT cn004
=   KILLED BY SIGNAL: 9 (Killed)
===================================================================================

===================================================================================
=   BAD TERMINATION OF ONE OF YOUR APPLICATION PROCESSES
=   RANK 16 PID 2604826 RUNNING AT cn004
=   KILLED BY SIGNAL: 9 (Killed)
===================================================================================

===================================================================================
=   BAD TERMINATION OF ONE OF YOUR APPLICATION PROCESSES
=   RANK 17 PID 2604827 RUNNING AT cn004
=   KILLED BY SIGNAL: 9 (Killed)
===================================================================================

===================================================================================
=   BAD TERMINATION OF ONE OF YOUR APPLICATION PROCESSES
=   RANK 18 PID 2604828 RUNNING AT cn004
=   KILLED BY SIGNAL: 9 (Killed)
===================================================================================

===================================================================================
=   BAD TERMINATION OF ONE OF YOUR APPLICATION PROCESSES
=   RANK 19 PID 2604829 RUNNING AT cn004
=   KILLED BY SIGNAL: 9 (Killed)
===================================================================================

===================================================================================
=   BAD TERMINATION OF ONE OF YOUR APPLICATION PROCESSES
=   RANK 20 PID 2604830 RUNNING AT cn004
=   KILLED BY SIGNAL: 9 (Killed)
===================================================================================

===================================================================================
=   BAD TERMINATION OF ONE OF YOUR APPLICATION PROCESSES
=   RANK 21 PID 2604831 RUNNING AT cn004
=   KILLED BY SIGNAL: 9 (Killed)
===================================================================================

===================================================================================
=   BAD TERMINATION OF ONE OF YOUR APPLICATION PROCESSES
=   RANK 22 PID 2604832 RUNNING AT cn004
=   KILLED BY SIGNAL: 9 (Killed)
===================================================================================

===================================================================================
=   BAD TERMINATION OF ONE OF YOUR APPLICATION PROCESSES
=   RANK 23 PID 2604833 RUNNING AT cn004
=   KILLED BY SIGNAL: 9 (Killed)
===================================================================================

===================================================================================
=   BAD TERMINATION OF ONE OF YOUR APPLICATION PROCESSES
=   RANK 24 PID 2604834 RUNNING AT cn004
=   KILLED BY SIGNAL: 9 (Killed)
===================================================================================

===================================================================================
=   BAD TERMINATION OF ONE OF YOUR APPLICATION PROCESSES
=   RANK 25 PID 2604835 RUNNING AT cn004
=   KILLED BY SIGNAL: 9 (Killed)
===================================================================================

===================================================================================
=   BAD TERMINATION OF ONE OF YOUR APPLICATION PROCESSES
=   RANK 26 PID 2604836 RUNNING AT cn004
=   KILLED BY SIGNAL: 9 (Killed)
===================================================================================

===================================================================================
=   BAD TERMINATION OF ONE OF YOUR APPLICATION PROCESSES
=   RANK 27 PID 2604837 RUNNING AT cn004
=   KILLED BY SIGNAL: 9 (Killed)
===================================================================================

===================================================================================
=   BAD TERMINATION OF ONE OF YOUR APPLICATION PROCESSES
=   RANK 28 PID 2604838 RUNNING AT cn004
=   KILLED BY SIGNAL: 9 (Killed)
===================================================================================

===================================================================================
=   BAD TERMINATION OF ONE OF YOUR APPLICATION PROCESSES
=   RANK 29 PID 2604839 RUNNING AT cn004
=   KILLED BY SIGNAL: 9 (Killed)
===================================================================================

===================================================================================
=   BAD TERMINATION OF ONE OF YOUR APPLICATION PROCESSES
=   RANK 31 PID 2604841 RUNNING AT cn004
=   KILLED BY SIGNAL: 9 (Killed)
===================================================================================

===================================================================================
=   BAD TERMINATION OF ONE OF YOUR APPLICATION PROCESSES
=   RANK 32 PID 2604842 RUNNING AT cn004
=   KILLED BY SIGNAL: 9 (Killed)
===================================================================================

===================================================================================
=   BAD TERMINATION OF ONE OF YOUR APPLICATION PROCESSES
=   RANK 33 PID 2604843 RUNNING AT cn004
=   KILLED BY SIGNAL: 9 (Killed)
===================================================================================

===================================================================================
=   BAD TERMINATION OF ONE OF YOUR APPLICATION PROCESSES
=   RANK 34 PID 2604844 RUNNING AT cn004
=   KILLED BY SIGNAL: 9 (Killed)
===================================================================================

===================================================================================
=   BAD TERMINATION OF ONE OF YOUR APPLICATION PROCESSES
=   RANK 36 PID 2604846 RUNNING AT cn004
=   KILLED BY SIGNAL: 9 (Killed)
===================================================================================

===================================================================================
=   BAD TERMINATION OF ONE OF YOUR APPLICATION PROCESSES
=   RANK 37 PID 2604847 RUNNING AT cn004
=   KILLED BY SIGNAL: 9 (Killed)
===================================================================================

===================================================================================
=   BAD TERMINATION OF ONE OF YOUR APPLICATION PROCESSES
=   RANK 38 PID 2604848 RUNNING AT cn004
=   KILLED BY SIGNAL: 9 (Killed)
===================================================================================

===================================================================================
=   BAD TERMINATION OF ONE OF YOUR APPLICATION PROCESSES
=   RANK 39 PID 2604849 RUNNING AT cn004
=   KILLED BY SIGNAL: 9 (Killed)
===================================================================================

===================================================================================
=   BAD TERMINATION OF ONE OF YOUR APPLICATION PROCESSES
=   RANK 40 PID 2604850 RUNNING AT cn004
=   KILLED BY SIGNAL: 9 (Killed)
===================================================================================

===================================================================================
=   BAD TERMINATION OF ONE OF YOUR APPLICATION PROCESSES
=   RANK 41 PID 2604851 RUNNING AT cn004
=   KILLED BY SIGNAL: 9 (Killed)
===================================================================================

===================================================================================
=   BAD TERMINATION OF ONE OF YOUR APPLICATION PROCESSES
=   RANK 42 PID 2604852 RUNNING AT cn004
=   KILLED BY SIGNAL: 9 (Killed)
===================================================================================

===================================================================================
=   BAD TERMINATION OF ONE OF YOUR APPLICATION PROCESSES
=   RANK 43 PID 2604853 RUNNING AT cn004
=   KILLED BY SIGNAL: 9 (Killed)
===================================================================================

===================================================================================
=   BAD TERMINATION OF ONE OF YOUR APPLICATION PROCESSES
=   RANK 44 PID 2604854 RUNNING AT cn004
=   KILLED BY SIGNAL: 9 (Killed)
===================================================================================

===================================================================================
=   BAD TERMINATION OF ONE OF YOUR APPLICATION PROCESSES
=   RANK 45 PID 2604855 RUNNING AT cn004
=   KILLED BY SIGNAL: 9 (Killed)
===================================================================================

===================================================================================
=   BAD TERMINATION OF ONE OF YOUR APPLICATION PROCESSES
=   RANK 46 PID 2604856 RUNNING AT cn004
=   KILLED BY SIGNAL: 9 (Killed)
===================================================================================

===================================================================================
=   BAD TERMINATION OF ONE OF YOUR APPLICATION PROCESSES
=   RANK 47 PID 2604857 RUNNING AT cn004
=   KILLED BY SIGNAL: 9 (Killed)
===================================================================================

===================================================================================
=   BAD TERMINATION OF ONE OF YOUR APPLICATION PROCESSES
=   RANK 48 PID 2604858 RUNNING AT cn004
=   KILLED BY SIGNAL: 9 (Killed)
===================================================================================

===================================================================================
=   BAD TERMINATION OF ONE OF YOUR APPLICATION PROCESSES
=   RANK 49 PID 2604859 RUNNING AT cn004
=   KILLED BY SIGNAL: 9 (Killed)
===================================================================================

===================================================================================
=   BAD TERMINATION OF ONE OF YOUR APPLICATION PROCESSES
=   RANK 50 PID 2604860 RUNNING AT cn004
=   KILLED BY SIGNAL: 9 (Killed)
===================================================================================

===================================================================================
=   BAD TERMINATION OF ONE OF YOUR APPLICATION PROCESSES
=   RANK 51 PID 2604861 RUNNING AT cn004
=   KILLED BY SIGNAL: 9 (Killed)
===================================================================================

===================================================================================
=   BAD TERMINATION OF ONE OF YOUR APPLICATION PROCESSES
=   RANK 52 PID 2604862 RUNNING AT cn004
=   KILLED BY SIGNAL: 9 (Killed)
===================================================================================

===================================================================================
=   BAD TERMINATION OF ONE OF YOUR APPLICATION PROCESSES
=   RANK 53 PID 2604863 RUNNING AT cn004
=   KILLED BY SIGNAL: 9 (Killed)
===================================================================================

===================================================================================
=   BAD TERMINATION OF ONE OF YOUR APPLICATION PROCESSES
=   RANK 54 PID 2604864 RUNNING AT cn004
=   KILLED BY SIGNAL: 9 (Killed)
===================================================================================

===================================================================================
=   BAD TERMINATION OF ONE OF YOUR APPLICATION PROCESSES
=   RANK 55 PID 2604865 RUNNING AT cn004
=   KILLED BY SIGNAL: 9 (Killed)
===================================================================================

===================================================================================
=   BAD TERMINATION OF ONE OF YOUR APPLICATION PROCESSES
=   RANK 56 PID 2604866 RUNNING AT cn004
=   KILLED BY SIGNAL: 9 (Killed)
===================================================================================

===================================================================================
=   BAD TERMINATION OF ONE OF YOUR APPLICATION PROCESSES
=   RANK 57 PID 2604867 RUNNING AT cn004
=   KILLED BY SIGNAL: 9 (Killed)
===================================================================================

===================================================================================
=   BAD TERMINATION OF ONE OF YOUR APPLICATION PROCESSES
=   RANK 58 PID 2604868 RUNNING AT cn004
=   KILLED BY SIGNAL: 9 (Killed)
===================================================================================

===================================================================================
=   BAD TERMINATION OF ONE OF YOUR APPLICATION PROCESSES
=   RANK 59 PID 2604869 RUNNING AT cn004
=   KILLED BY SIGNAL: 9 (Killed)
===================================================================================

===================================================================================
=   BAD TERMINATION OF ONE OF YOUR APPLICATION PROCESSES
=   RANK 60 PID 2604870 RUNNING AT cn004
=   KILLED BY SIGNAL: 9 (Killed)
===================================================================================

===================================================================================
=   BAD TERMINATION OF ONE OF YOUR APPLICATION PROCESSES
=   RANK 61 PID 2604871 RUNNING AT cn004
=   KILLED BY SIGNAL: 9 (Killed)
===================================================================================

===================================================================================
=   BAD TERMINATION OF ONE OF YOUR APPLICATION PROCESSES
=   RANK 62 PID 2604872 RUNNING AT cn004
=   KILLED BY SIGNAL: 9 (Killed)
===================================================================================

===================================================================================
=   BAD TERMINATION OF ONE OF YOUR APPLICATION PROCESSES
=   RANK 63 PID 2604873 RUNNING AT cn004
=   KILLED BY SIGNAL: 9 (Killed)
===================================================================================
