
     Program PWSCF v.7.3.1 starts on 15Apr2025 at 21:26:55 

     This program is part of the open-source Quantum ESPRESSO suite
     for quantum simulation of materials; please cite
         "P. Giannozzi et al., J. Phys.:Condens. Matter 21 395502 (2009);
         "P. Giannozzi et al., J. Phys.:Condens. Matter 29 465901 (2017);
         "P. Giannozzi et al., J. Chem. Phys. 152 154105 (2020);
          URL http://www.quantum-espresso.org", 
     in publications or presentations arising from this work. More details at
     http://www.quantum-espresso.org/quote

     Parallel version (MPI), running on    64 processors

     MPI processes distributed on     1 nodes
     307234 MiB available memory on the printing compute node when the environment starts
 
     Reading input from pw.in
Warning: card &CELL ignored
Warning: card / ignored

     Current dimensions of program PWSCF are:
     Max number of different atomic species (ntypx) = 10
     Max number of k-points (npk) =  40000
     Max angular momentum in pseudopotentials (lmaxx) =  4
     file C.pbe-n-kjpaw_psl.1.0.0.UPF: wavefunction(s)  2S 2P renormalized
     file Al.pbe-n-kjpaw_psl.1.0.0.UPF: wavefunction(s)  3S 3P renormalized
     file Cl.pbe-n-kjpaw_psl.1.0.0.UPF: wavefunction(s)  3S 3P renormalized
 
     R & G space division:  proc/nbgrp/npool/nimage =      64
     Subspace diagonalization in iterative solution of the eigenvalue problem:
     one sub-group per band group will be used
     scalapack distributed-memory algorithm (size of sub-group:  5*  5 procs)

 
     Parallelization info
     --------------------
     sticks:   dense  smooth     PW     G-vecs:    dense   smooth      PW
     Min        3621    2013    503               582747   241439   30177
     Max        3622    2014    505               582750   241441   30178
     Sum      231789  128845  32249             37295885 15452175 1931369
 
     Using Slab Decomposition
 


     bravais-lattice index     =            0
     lattice parameter (alat)  =      94.4863  a.u.
     unit-cell volume          =  374761.1913 (a.u.)^3
     number of atoms/cell      =          197
     number of atomic types    =            3
     number of electrons       =       799.00
     number of Kohn-Sham states=          480
     kinetic-energy cutoff     =      45.3312  Ry
     charge density cutoff     =     326.2606  Ry
     scf convergence threshold =      1.0E-06
     mixing beta               =       0.3000
     number of iterations used =            8  local-TF  mixing
     energy convergence thresh.=      1.0E-04
     force convergence thresh. =      1.0E-03
     Exchange-correlation= SLA  PW   PBX  PBC
                           (   1   4   3   4   0   0   0)
     nstep                     =          200


     celldm(1)=  94.486306  celldm(2)=   0.000000  celldm(3)=   0.000000
     celldm(4)=   0.000000  celldm(5)=   0.000000  celldm(6)=   0.000000

     crystal axes: (cart. coord. in units of alat)
               a(1) = (   1.000000   0.000000   0.000000 )  
               a(2) = (   0.000000   1.000000   0.000000 )  
               a(3) = (   0.000000   0.000000   0.444271 )  

     reciprocal axes: (cart. coord. in units 2 pi/alat)
               b(1) = (  1.000000  0.000000  0.000000 )  
               b(2) = (  0.000000  1.000000  0.000000 )  
               b(3) = (  0.000000  0.000000  2.250878 )  


     PseudoPot. # 1 for C  read from file:
     /home/elmer.barquero/carbon_nn/pseudo/C.pbe-n-kjpaw_psl.1.0.0.UPF
     MD5 check sum: 5f16ad9a65e90284d1d834d4ab3b0f7d
     Pseudo is Projector augmented-wave + core cor, Zval =  4.0
     Generated using &quot;atomic&quot; code by A. Dal Corso  v.6.3
     Shape of augmentation charge: PSQ
     Using radial grid of 1073 points,  4 beta functions with: 
                l(1) =   0
                l(2) =   0
                l(3) =   1
                l(4) =   1
     Q(r) pseudized with 0 coefficients 


     PseudoPot. # 2 for Al read from file:
     /home/elmer.barquero/carbon_nn/pseudo/Al.pbe-n-kjpaw_psl.1.0.0.UPF
     MD5 check sum: 502b6b27b9c6270cab5dd1084b96fa6d
     Pseudo is Projector augmented-wave + core cor, Zval =  3.0
     Generated using &quot;atomic&quot; code by A. Dal Corso  v.6.3
     Shape of augmentation charge: PSQ
     Using radial grid of 1135 points,  6 beta functions with: 
                l(1) =   0
                l(2) =   0
                l(3) =   1
                l(4) =   1
                l(5) =   2
                l(6) =   2
     Q(r) pseudized with 0 coefficients 


     PseudoPot. # 3 for Cl read from file:
     /home/elmer.barquero/carbon_nn/pseudo/Cl.pbe-n-kjpaw_psl.1.0.0.UPF
     MD5 check sum: 530da96d25dcb7781b0586ca00827062
     Pseudo is Projector augmented-wave + core cor, Zval =  7.0
     Generated using &quot;atomic&quot; code by A. Dal Corso  v.6.3
     Shape of augmentation charge: PSQ
     Using radial grid of 1157 points,  6 beta functions with: 
                l(1) =   0
                l(2) =   0
                l(3) =   1
                l(4) =   1
                l(5) =   2
                l(6) =   2
     Q(r) pseudized with 0 coefficients 


     atomic species   valence    mass     pseudopotential
     C                 4.00    12.01100     C ( 1.00)
     Al                3.00    26.98154     Al( 1.00)
     Cl                7.00    35.45000     Cl( 1.00)

     No symmetry found



   Cartesian axes

     site n.     atom                  positions (alat units)
         1        C      tau(   1) = (   0.6087439   0.4368363   0.0220164  )
         2        C      tau(   2) = (   0.6016427   0.5149120   0.1479251  )
         3        C      tau(   3) = (   0.5446482   0.5775385   0.0003594  )
         4        C      tau(   4) = (   0.4636858   0.6013250   0.0003423  )
         5        C      tau(   5) = (   0.3833236   0.5760316   0.0002793  )
         6        C      tau(   6) = (   0.3381571   0.5054522   0.0002625  )
         7        C      tau(   7) = (   0.3502194   0.4222491   0.0002434  )
         8        C      tau(   8) = (   0.4072388   0.3596472   0.0002361  )
         9        C      tau(   9) = (   0.4861825   0.3283813   0.0002169  )
        10        C      tau(  10) = (   0.5710002   0.3324763   0.0001877  )
        11        C      tau(  11) = (   0.6449573   0.3736088   0.0001728  )
        12        C      tau(  12) = (   0.6854474   0.4474079   0.0001397  )
        13        C      tau(  13) = (   0.6799082   0.5318598   0.0001301  )
        14        C      tau(  14) = (   0.6511548   0.6122100   0.0001070  )
        15        C      tau(  15) = (   0.6188216   0.6911619   0.0001761  )
        16        C      tau(  16) = (   0.5799057   0.7676895   0.1479901  )
        17        C      tau(  17) = (   0.6146234   0.4589080   0.0039973  )
        18        C      tau(  18) = (   0.5865709   0.5391851   0.1480996  )
        19        C      tau(  19) = (   0.5192575   0.5904013   0.0003588  )
        20        C      tau(  20) = (   0.4352926   0.5986431   0.0003122  )
        21        C      tau(  21) = (   0.3626303   0.5564385   0.0002741  )
        22        C      tau(  22) = (   0.3358251   0.4770575   0.0002487  )
        23        C      tau(  23) = (   0.3654956   0.3981938   0.0002438  )
        24        C      tau(  24) = (   0.4319718   0.3455063   0.0002297  )
        25        C      tau(  25) = (   0.5145516   0.3257077   0.0002059  )
        26        C      tau(  26) = (   0.5978247   0.3420628   0.0001800  )
        27        C      tau(  27) = (   0.6634197   0.3952844   0.0001664  )
        28        C      tau(  28) = (   0.6882050   0.4757249   0.0001313  )
        29        C      tau(  29) = (   0.6714436   0.5590231   0.0001217  )
        30        C      tau(  30) = (   0.6405062   0.6386059   0.0001037  )
        31        C      tau(  31) = (   0.6069723   0.7170599   0.0002286  )
        32        C      tau(  32) = (   0.5649640   0.7925049   0.1473317  )
        33        C      tau(  33) = (   0.6199751   0.4788678   0.0247973  )
        34        C      tau(  34) = (   0.5782262   0.5508711   0.0247983  )
        35        C      tau(  35) = (   0.5058542   0.5949136   0.0250550  )
        36        C      tau(  36) = (   0.4214342   0.5951645   0.0249738  )
        37        C      tau(  37) = (   0.3541992   0.5449237   0.0249570  )
        38        C      tau(  38) = (   0.3371386   0.4628440   0.0249328  )
        39        C      tau(  39) = (   0.3747225   0.3873108   0.0249286  )
        40        C      tau(  40) = (   0.4450410   0.3397992   0.0249122  )
        41        C      tau(  41) = (   0.5288175   0.3258459   0.0248865  )
        42        C      tau(  42) = (   0.6106202   0.3483688   0.0248611  )
        43        C      tau(  43) = (   0.6711636   0.4072658   0.0248449  )
        44        C      tau(  44) = (   0.6878945   0.4899411   0.0248173  )
        45        C      tau(  45) = (   0.6666466   0.5724148   0.0247995  )
        46        C      tau(  46) = (   0.6352265   0.6517596   0.0247939  )
        47        C      tau(  47) = (   0.6004982   0.7301112   0.0247752  )
        48        C      tau(  48) = (   0.5570716   0.8050262   0.0247782  )
        49        C      tau(  49) = (   0.6106278   0.5052146   0.0247078  )
        50        C      tau(  50) = (   0.5567463   0.5696595   0.0249244  )
        51        C      tau(  51) = (   0.4778900   0.6003761   0.0250356  )
        52        C      tau(  52) = (   0.3952842   0.5838290   0.0249644  )
        53        C      tau(  53) = (   0.3418920   0.5192305   0.0249493  )
        54        C      tau(  54) = (   0.3444517   0.4353030   0.0249311  )
        55        C      tau(  55) = (   0.3957001   0.3680347   0.0249222  )
        56        C      tau(  56) = (   0.4722079   0.3312163   0.0249046  )
        57        C      tau(  57) = (   0.5571121   0.3292217   0.0248727  )
        58        C      tau(  58) = (   0.6343602   0.3641105   0.0248683  )
        59        C      tau(  59) = (   0.6822517   0.4335190   0.0248235  )
        60        C      tau(  60) = (   0.6834946   0.5180723   0.0248069  )
        61        C      tau(  61) = (   0.6564417   0.5990098   0.0247934  )
        62        C      tau(  62) = (   0.6244295   0.6780832   0.0247923  )
        63        C      tau(  63) = (   0.5869297   0.7553666   0.0247685  )
        64        C      tau(  64) = (   0.5427765   0.8276104   0.0247725  )
        65        C      tau(  65) = (   0.6163666   0.4385241   0.0496445  )
        66        C      tau(  66) = (   0.6050118   0.5182443   0.0496698  )
        67        C      tau(  67) = (   0.5449287   0.5775411   0.0496928  )
        68        C      tau(  68) = (   0.4636290   0.6009070   0.0496843  )
        69        C      tau(  69) = (   0.3833247   0.5760235   0.0496428  )
        70        C      tau(  70) = (   0.3381637   0.5054529   0.0496238  )
        71        C      tau(  71) = (   0.3502434   0.4222609   0.0496093  )
        72        C      tau(  72) = (   0.4072348   0.3596473   0.0496001  )
        73        C      tau(  73) = (   0.4861875   0.3283902   0.0495802  )
        74        C      tau(  74) = (   0.5710007   0.3324707   0.0495481  )
        75        C      tau(  75) = (   0.6451717   0.3734448   0.0495301  )
        76        C      tau(  76) = (   0.6858430   0.4473429   0.0494855  )
        77        C      tau(  77) = (   0.6800705   0.5318914   0.0494773  )
        78        C      tau(  78) = (   0.6512125   0.6122392   0.0494713  )
        79        C      tau(  79) = (   0.6189986   0.6912453   0.0494008  )
        80        C      tau(  80) = (   0.5801769   0.7678407   0.0496320  )
        81        C      tau(  81) = (   0.6248620   0.4665705   0.0496565  )
        82        C      tau(  82) = (   0.5881320   0.5408560   0.0496700  )
        83        C      tau(  83) = (   0.5193390   0.5900359   0.0497047  )
        84        C      tau(  84) = (   0.4352881   0.5985097   0.0496655  )
        85        C      tau(  85) = (   0.3626239   0.5564475   0.0496377  )
        86        C      tau(  86) = (   0.3358115   0.4770572   0.0496129  )
        87        C      tau(  87) = (   0.3654944   0.3981881   0.0496088  )
        88        C      tau(  88) = (   0.4319712   0.3455075   0.0495931  )
        89        C      tau(  89) = (   0.5145543   0.3256944   0.0495707  )
        90        C      tau(  90) = (   0.5978352   0.3420417   0.0495353  )
        91        C      tau(  91) = (   0.6637399   0.3950675   0.0495163  )
        92        C      tau(  92) = (   0.6886549   0.4756973   0.0494812  )
        93        C      tau(  93) = (   0.6714971   0.5590289   0.0494726  )
        94        C      tau(  94) = (   0.6406061   0.6386464   0.0494772  )
        95        C      tau(  95) = (   0.6072403   0.7171914   0.0493233  )
        96        C      tau(  96) = (   0.5651096   0.7925713   0.0502985  )
        97        C      tau(  97) = (   0.6199685   0.4788682   0.0745242  )
        98        C      tau(  98) = (   0.5781661   0.5508003   0.0745566  )
        99        C      tau(  99) = (   0.5057263   0.5944503   0.0743506  )
       100        C      tau( 100) = (   0.4214283   0.5951168   0.0743510  )
       101        C      tau( 101) = (   0.3541893   0.5449283   0.0743187  )
       102        C      tau( 102) = (   0.3371402   0.4628457   0.0742913  )
       103        C      tau( 103) = (   0.3747150   0.3873009   0.0742911  )
       104        C      tau( 104) = (   0.4450364   0.3398003   0.0742725  )
       105        C      tau( 105) = (   0.5288143   0.3258525   0.0742502  )
       106        C      tau( 106) = (   0.6106151   0.3483699   0.0742108  )
       107        C      tau( 107) = (   0.6711671   0.4072648   0.0741820  )
       108        C      tau( 108) = (   0.6879052   0.4899463   0.0741546  )
       109        C      tau( 109) = (   0.6666532   0.5724346   0.0741599  )
       110        C      tau( 110) = (   0.6353274   0.6518881   0.0741463  )
       111        C      tau( 111) = (   0.6013814   0.7298700   0.0739228  )
       112        C      tau( 112) = (   0.5586003   0.8034752   0.0750620  )
       113        C      tau( 113) = (   0.6106147   0.5052083   0.0746304  )
       114        C      tau( 114) = (   0.5566321   0.5694668   0.0744506  )
       115        C      tau( 115) = (   0.4778231   0.5999702   0.0743544  )
       116        C      tau( 116) = (   0.3952788   0.5838185   0.0743362  )
       117        C      tau( 117) = (   0.3418880   0.5192327   0.0743108  )
       118        C      tau( 118) = (   0.3444494   0.4353052   0.0742914  )
       119        C      tau( 119) = (   0.3956893   0.3680188   0.0742837  )
       120        C      tau( 120) = (   0.4722058   0.3312218   0.0742650  )
       121        C      tau( 121) = (   0.5571102   0.3292244   0.0742324  )
       122        C      tau( 122) = (   0.6343550   0.3641135   0.0742003  )
       123        C      tau( 123) = (   0.6822417   0.4335159   0.0741638  )
       124        C      tau( 124) = (   0.6835098   0.5180664   0.0741624  )
       125        C      tau( 125) = (   0.6564660   0.5990072   0.0741627  )
       126        C      tau( 126) = (   0.6245906   0.6782352   0.0741195  )
       127        C      tau( 127) = (   0.5881080   0.7549452   0.0737799  )
       128        C      tau( 128) = (   0.5441627   0.8262417   0.0862270  )
       129        C      tau( 129) = (   0.6087263   0.4368616   0.0772862  )
       130        C      tau( 130) = (   0.6016287   0.5149011   0.0995157  )
       131        C      tau( 131) = (   0.5445270   0.5772888   0.0990006  )
       132        C      tau( 132) = (   0.4636539   0.6010435   0.0990148  )
       133        C      tau( 133) = (   0.3833169   0.5760299   0.0990155  )
       134        C      tau( 134) = (   0.3381690   0.5054518   0.0989894  )
       135        C      tau( 135) = (   0.3502295   0.4222542   0.0989737  )
       136        C      tau( 136) = (   0.4072315   0.3596404   0.0989631  )
       137        C      tau( 137) = (   0.4861826   0.3283891   0.0989446  )
       138        C      tau( 138) = (   0.5709998   0.3324691   0.0989077  )
       139        C      tau( 139) = (   0.6449630   0.3736079   0.0988864  )
       140        C      tau( 140) = (   0.6854422   0.4474012   0.0988395  )
       141        C      tau( 141) = (   0.6799233   0.5318619   0.0988327  )
       142        C      tau( 142) = (   0.6511884   0.6122415   0.0988290  )
       143        C      tau( 143) = (   0.6190475   0.6912909   0.0988238  )
       144        C      tau( 144) = (   0.5814857   0.7664070   0.0987911  )
       145        C      tau( 145) = (   0.6146194   0.4589045   0.0953186  )
       146        C      tau( 146) = (   0.5865523   0.5391577   0.0993488  )
       147        C      tau( 147) = (   0.5191251   0.5900337   0.0990081  )
       148        C      tau( 148) = (   0.4352823   0.5985524   0.0990222  )
       149        C      tau( 149) = (   0.3626308   0.5564333   0.0990051  )
       150        C      tau( 150) = (   0.3358413   0.4770601   0.0989775  )
       151        C      tau( 151) = (   0.3655009   0.3981976   0.0989741  )
       152        C      tau( 152) = (   0.4319693   0.3455059   0.0989557  )
       153        C      tau( 153) = (   0.5145492   0.3257153   0.0989344  )
       154        C      tau( 154) = (   0.5978229   0.3420526   0.0988905  )
       155        C      tau( 155) = (   0.6634307   0.3952825   0.0988682  )
       156        C      tau( 156) = (   0.6882159   0.4757237   0.0988359  )
       157        C      tau( 157) = (   0.6714560   0.5590407   0.0988331  )
       158        C      tau( 158) = (   0.6405888   0.6386844   0.0988245  )
       159        C      tau( 159) = (   0.6074623   0.7172243   0.0988117  )
       160        C      tau( 160) = (   0.5672185   0.7899169   0.0988055  )
       161        C      tau( 161) = (   0.6114992   0.4699765   0.1237167  )
       162        C      tau( 162) = (   0.5768604   0.5499744   0.1237251  )
       163        C      tau( 163) = (   0.5057765   0.5949016   0.1237234  )
       164        C      tau( 164) = (   0.4214373   0.5951664   0.1237153  )
       165        C      tau( 165) = (   0.3541942   0.5449195   0.1236855  )
       166        C      tau( 166) = (   0.3371373   0.4628441   0.1236589  )
       167        C      tau( 167) = (   0.3747310   0.3873165   0.1236543  )
       168        C      tau( 168) = (   0.4450347   0.3397992   0.1236391  )
       169        C      tau( 169) = (   0.5288135   0.3258882   0.1236140  )
       170        C      tau( 170) = (   0.6105718   0.3484045   0.1235782  )
       171        C      tau( 171) = (   0.6708290   0.4074318   0.1235581  )
       172        C      tau( 172) = (   0.6875322   0.4899321   0.1235218  )
       173        C      tau( 173) = (   0.6666246   0.5724241   0.1235135  )
       174        C      tau( 174) = (   0.6351883   0.6518283   0.1235095  )
       175        C      tau( 175) = (   0.6010642   0.7296970   0.1236880  )
       176        C      tau( 176) = (   0.5585069   0.8034285   0.1225613  )
       177        C      tau( 177) = (   0.6058822   0.4991514   0.1237214  )
       178        C      tau( 178) = (   0.5561471   0.5693049   0.1237199  )
       179        C      tau( 179) = (   0.4778820   0.6004855   0.1237227  )
       180        C      tau( 180) = (   0.3952792   0.5838439   0.1236998  )
       181        C      tau( 181) = (   0.3418646   0.5192310   0.1236768  )
       182        C      tau( 182) = (   0.3444220   0.4352919   0.1236565  )
       183        C      tau( 183) = (   0.3957010   0.3680272   0.1236509  )
       184        C      tau( 184) = (   0.4722038   0.3312175   0.1236300  )
       185        C      tau( 185) = (   0.5571101   0.3292469   0.1236004  )
       186        C      tau( 186) = (   0.6342422   0.3642248   0.1235771  )
       187        C      tau( 187) = (   0.6818999   0.4336324   0.1235393  )
       188        C      tau( 188) = (   0.6832693   0.5180479   0.1235206  )
       189        C      tau( 189) = (   0.6564289   0.5989957   0.1235023  )
       190        C      tau( 190) = (   0.6244107   0.6781656   0.1235371  )
       191        C      tau( 191) = (   0.5877521   0.7547451   0.1238109  )
       192        C      tau( 192) = (   0.5441768   0.8262565   0.1113848  )
       193        Al     tau( 193) = (   0.5385073   0.6716540   0.1600720  )
       194        Cl     tau( 194) = (   0.5540224   0.6743141   0.1199399  )
       195        Cl     tau( 195) = (   0.5404056   0.7092286   0.1810823  )
       196        Cl     tau( 196) = (   0.5627465   0.6419980   0.1813179  )
       197        Cl     tau( 197) = (   0.4969876   0.6594448   0.1587506  )

     --------------------------------------------
     DFT-D3 Dispersion Correction (3-body terms):
     --------------------------------------------
       Reference C6 values for interpolation: 

         atom   Coordination number   C6
         C          0.000            98.23
         C          0.987            86.49
         C          1.998            58.72
         C          2.999            51.56
         C          3.984            36.41
         Al         0.000          1081.08
         Al         0.965           875.51
         Al         1.931           513.50
         Al         2.915           307.19
         Cl         0.000           184.69
         Cl         0.997           180.80

       Values used:

         atom   Coordination number  R0_AB[au]  C6      C8
         C          2.436            2.750     55.97   1618.72
         C          2.139            2.750     58.45   1690.53
         C          2.150            2.750     58.41   1689.24
         C          2.157            2.750     58.38   1688.31
         C          2.158            2.750     58.37   1688.26
         C          2.158            2.750     58.37   1688.19
         C          2.157            2.750     58.38   1688.36
         C          2.156            2.750     58.38   1688.47
         C          2.156            2.750     58.38   1688.50
         C          2.156            2.750     58.38   1688.46
         C          2.159            2.750     58.37   1688.15
         C          2.161            2.750     58.36   1687.85
         C          2.158            2.750     58.37   1688.19
         C          2.157            2.750     58.38   1688.38
         C          2.156            2.750     58.38   1688.54
         C          2.153            2.750     58.39   1688.81
         C          2.148            2.750     58.42   1689.47
         C          2.144            2.750     58.43   1689.94
         C          2.157            2.750     58.38   1688.31
         C          2.158            2.750     58.37   1688.29
         C          2.158            2.750     58.37   1688.18
         C          2.158            2.750     58.37   1688.26
         C          2.157            2.750     58.38   1688.41
         C          2.156            2.750     58.38   1688.49
         C          2.156            2.750     58.38   1688.50
         C          2.157            2.750     58.38   1688.38
         C          2.160            2.750     58.36   1687.97
         C          2.160            2.750     58.36   1687.93
         C          2.157            2.750     58.38   1688.35
         C          2.157            2.750     58.38   1688.35
         C          2.147            2.750     58.42   1689.59
         C          2.119            2.750     58.53   1692.78
         C          3.391            2.750     46.44   1343.25
         C          2.204            2.750     58.15   1681.93
         C          3.252            2.750     49.39   1428.37
         C          3.250            2.750     49.41   1428.89
         C          3.252            2.750     49.38   1428.16
         C          3.251            2.750     49.40   1428.66
         C          3.249            2.750     49.43   1429.64
         C          3.248            2.750     49.44   1430.00
         C          3.248            2.750     49.45   1430.11
         C          3.250            2.750     49.42   1429.24
         C          3.254            2.750     49.35   1427.16
         C          3.254            2.750     49.35   1427.22
         C          3.249            2.750     49.42   1429.41
         C          3.251            2.750     49.40   1428.78
         C          3.195            2.750     50.11   1449.31
         C          2.079            2.750     58.68   1697.05
         C          2.209            2.750     58.13   1681.14
         C          3.200            2.750     50.06   1447.83
         C          3.252            2.750     49.39   1428.39
         C          3.251            2.750     49.39   1428.59
         C          3.252            2.750     49.38   1428.10
         C          3.250            2.750     49.41   1429.07
         C          3.248            2.750     49.44   1429.87
         C          3.248            2.750     49.45   1430.07
         C          3.248            2.750     49.44   1429.95
         C          3.251            2.750     49.39   1428.56
         C          3.255            2.750     49.34   1426.99
         C          3.252            2.750     49.38   1428.22
         C          3.249            2.750     49.43   1429.72
         C          3.251            2.750     49.40   1428.79
         C          2.187            2.750     58.24   1684.36
         C          1.065            2.750     85.68   2477.97
         C          3.234            2.750     49.64   1435.64
         C          3.265            2.750     49.17   1422.18
         C          3.302            2.750     48.53   1403.48
         C          3.308            2.750     48.41   1400.01
         C          3.306            2.750     48.45   1401.14
         C          3.307            2.750     48.43   1400.74
         C          3.305            2.750     48.48   1402.03
         C          3.303            2.750     48.51   1402.95
         C          3.302            2.750     48.52   1403.22
         C          3.303            2.750     48.51   1402.85
         C          3.306            2.750     48.44   1401.09
         C          3.310            2.750     48.36   1398.63
         C          3.306            2.750     48.44   1401.03
         C          3.304            2.750     48.49   1402.43
         C          3.306            2.750     48.45   1401.37
         C          3.239            2.750     49.57   1433.54
         C          3.711            2.750     38.46   1112.36
         C          3.255            2.750     49.33   1426.73
         C          3.306            2.750     48.45   1401.20
         C          3.307            2.750     48.42   1400.41
         C          3.307            2.750     48.43   1400.71
         C          3.306            2.750     48.45   1401.14
         C          3.304            2.750     48.49   1402.54
         C          3.303            2.750     48.51   1403.09
         C          3.302            2.750     48.52   1403.25
         C          3.304            2.750     48.49   1402.32
         C          3.309            2.750     48.40   1399.68
         C          3.309            2.750     48.38   1399.29
         C          3.305            2.750     48.48   1402.02
         C          3.304            2.750     48.48   1402.16
         C          3.305            2.750     48.47   1401.81
         C          3.208            2.750     49.96   1445.06
         C          3.513            2.750     42.91   1240.99
         C          3.303            2.750     48.51   1402.90
         C          3.310            2.750     48.37   1398.81
         C          3.306            2.750     48.44   1400.93
         C          3.307            2.750     48.43   1400.71
         C          3.306            2.750     48.45   1401.33
         C          3.303            2.750     48.50   1402.64
         C          3.303            2.750     48.51   1403.12
         C          3.302            2.750     48.52   1403.23
         C          3.304            2.750     48.48   1402.11
         C          3.309            2.750     48.38   1399.36
         C          3.309            2.750     48.39   1399.41
         C          3.304            2.750     48.48   1402.16
         C          3.304            2.750     48.48   1402.08
         C          3.312            2.750     48.33   1397.76
         C          3.355            2.750     47.38   1370.22
         C          3.314            2.750     48.29   1396.63
         C          3.305            2.750     48.48   1402.05
         C          3.310            2.750     48.37   1398.99
         C          3.306            2.750     48.44   1400.98
         C          3.307            2.750     48.43   1400.56
         C          3.305            2.750     48.47   1401.87
         C          3.303            2.750     48.51   1402.97
         C          3.303            2.750     48.52   1403.16
         C          3.303            2.750     48.51   1403.00
         C          3.306            2.750     48.45   1401.33
         C          3.310            2.750     48.37   1399.07
         C          3.307            2.750     48.43   1400.64
         C          3.304            2.750     48.50   1402.61
         C          3.305            2.750     48.46   1401.63
         C          3.322            2.750     48.12   1391.67
         C          2.310            2.750     57.41   1660.49
         C          2.447            2.750     55.81   1614.03
         C          3.310            2.750     48.38   1399.13
         C          3.259            2.750     49.28   1425.22
         C          3.253            2.750     49.36   1427.62
         C          3.251            2.750     49.40   1428.60
         C          3.252            2.750     49.38   1428.23
         C          3.250            2.750     49.42   1429.26
         C          3.248            2.750     49.44   1429.90
         C          3.248            2.750     49.45   1430.12
         C          3.248            2.750     49.44   1429.76
         C          3.252            2.750     49.38   1428.15
         C          3.256            2.750     49.33   1426.57
         C          3.252            2.750     49.39   1428.33
         C          3.249            2.750     49.43   1429.72
         C          3.257            2.750     49.31   1426.23
         C          3.323            2.750     48.09   1390.85
         C          3.188            2.750     50.18   1451.33
         C          3.308            2.750     48.41   1400.13
         C          3.257            2.750     49.31   1426.06
         C          3.252            2.750     49.38   1428.19
         C          3.252            2.750     49.38   1428.22
         C          3.251            2.750     49.39   1428.46
         C          3.249            2.750     49.43   1429.62
         C          3.248            2.750     49.44   1429.98
         C          3.248            2.750     49.45   1430.12
         C          3.249            2.750     49.42   1429.32
         C          3.254            2.750     49.35   1427.31
         C          3.255            2.750     49.34   1426.90
         C          3.250            2.750     49.41   1429.04
         C          3.249            2.750     49.43   1429.68
         C          3.258            2.750     49.30   1425.74
         C          3.572            2.750     41.25   1193.07
         C          2.089            2.750     58.64   1696.04
         C          3.207            2.750     49.98   1445.44
         C          2.163            2.750     58.35   1687.58
         C          2.158            2.750     58.37   1688.29
         C          2.158            2.750     58.37   1688.18
         C          2.158            2.750     58.37   1688.26
         C          2.156            2.750     58.38   1688.42
         C          2.156            2.750     58.38   1688.49
         C          2.156            2.750     58.38   1688.50
         C          2.157            2.750     58.38   1688.32
         C          2.160            2.750     58.36   1687.99
         C          2.160            2.750     58.36   1687.93
         C          2.157            2.750     58.37   1688.30
         C          2.158            2.750     58.37   1688.22
         C          2.210            2.750     58.12   1680.92
         C          3.311            2.750     48.35   1398.24
         C          3.162            2.750     50.43   1458.62
         C          2.210            2.750     58.12   1680.95
         C          2.163            2.750     58.35   1687.66
         C          2.158            2.750     58.37   1688.23
         C          2.158            2.750     58.37   1688.18
         C          2.157            2.750     58.38   1688.34
         C          2.156            2.750     58.38   1688.47
         C          2.156            2.750     58.38   1688.49
         C          2.156            2.750     58.38   1688.46
         C          2.158            2.750     58.37   1688.24
         C          2.161            2.750     58.36   1687.90
         C          2.159            2.750     58.37   1688.09
         C          2.157            2.750     58.38   1688.36
         C          2.162            2.750     58.35   1687.68
         C          3.211            2.750     49.93   1443.95
         C          2.305            2.750     57.46   1661.86
         Al         3.976            3.789    307.19  29441.37
         Cl         1.067            2.933    180.84   7545.21
         Cl         1.049            2.933    180.84   7545.47
         Cl         1.045            2.933    180.85   7545.54
         Cl         1.054            2.933    180.84   7545.40

         Molecular C6 ( Ry / a.u.^6 ) =   2120595.12


     number of k points=     1  Methfessel-Paxton smearing, width (Ry)=  0.0200
                       cart. coord. in units 2pi/alat
        k(    1) = (   0.0000000   0.0000000   0.0000000), wk =   2.0000000

     Dense  grid: 37295885 G-vectors     FFT dimensions: ( 576, 576, 243)

     Smooth grid: 15452175 G-vectors     FFT dimensions: ( 405, 405, 180)

     Estimated max dynamical RAM per process >       7.91 GB

     Estimated total dynamical RAM >     506.48 GB

     Check: negative core charge=   -0.000001

     Initial potential from superposition of free atoms

     starting charge     798.9897, renormalised to     799.0000

     negative rho (up, down):  2.368E-02 0.000E+00
     Starting wfcs are  788 randomized atomic wfcs
     Checking if some PAW data can be deallocated... 

     total cpu time spent up to now is      108.0 secs

     Self-consistent Calculation

     iteration #  1     ecut=    45.33 Ry     beta= 0.30
     Davidson diagonalization with overlap
     ethr =  1.00E-02,  avg # of iterations =  2.0

     negative rho (up, down):  1.069E-02 0.000E+00

     total cpu time spent up to now is      280.3 secs

     total energy              =   -3888.49913328 Ry
     estimated scf accuracy    <      19.60534228 Ry

     iteration #  2     ecut=    45.33 Ry     beta= 0.30
     Davidson diagonalization with overlap
     ethr =  2.45E-03,  avg # of iterations =  1.0

     negative rho (up, down):  1.244E-02 0.000E+00

     total cpu time spent up to now is      407.9 secs

     total energy              =   -3886.46061632 Ry
     estimated scf accuracy    <      12.49541948 Ry

     iteration #  3     ecut=    45.33 Ry     beta= 0.30
     Davidson diagonalization with overlap
     ethr =  1.56E-03,  avg # of iterations =  1.0

     negative rho (up, down):  7.641E-03 0.000E+00

     total cpu time spent up to now is      536.0 secs

     total energy              =   -3884.71450948 Ry
     estimated scf accuracy    <       7.67977006 Ry

     iteration #  4     ecut=    45.33 Ry     beta= 0.30
     Davidson diagonalization with overlap
     ethr =  9.61E-04,  avg # of iterations =  1.0

     negative rho (up, down):  5.515E-03 0.000E+00

     total cpu time spent up to now is      664.1 secs

     total energy              =   -3884.71060220 Ry
     estimated scf accuracy    <       2.75185005 Ry

     iteration #  5     ecut=    45.33 Ry     beta= 0.30
     Davidson diagonalization with overlap
     ethr =  3.44E-04,  avg # of iterations =  2.0

     negative rho (up, down):  3.815E-03 0.000E+00

     total cpu time spent up to now is      800.4 secs

     total energy              =   -3884.75974912 Ry
     estimated scf accuracy    <       1.08493947 Ry

     iteration #  6     ecut=    45.33 Ry     beta= 0.30
     Davidson diagonalization with overlap
     ethr =  1.36E-04,  avg # of iterations =  1.0

     negative rho (up, down):  2.891E-03 0.000E+00

     total cpu time spent up to now is      928.6 secs

     total energy              =   -3884.72354228 Ry
     estimated scf accuracy    <       1.54287774 Ry

     iteration #  7     ecut=    45.33 Ry     beta= 0.30
     Davidson diagonalization with overlap
     ethr =  1.36E-04,  avg # of iterations =  1.0

     negative rho (up, down):  2.174E-03 0.000E+00

     total cpu time spent up to now is     1056.9 secs

     total energy              =   -3884.74693520 Ry
     estimated scf accuracy    <       0.39718967 Ry

     iteration #  8     ecut=    45.33 Ry     beta= 0.30
     Davidson diagonalization with overlap
     ethr =  4.97E-05,  avg # of iterations =  1.0

     negative rho (up, down):  1.926E-03 0.000E+00

     total cpu time spent up to now is     1185.1 secs

     total energy              =   -3884.73698098 Ry
     estimated scf accuracy    <       0.58479065 Ry

     iteration #  9     ecut=    45.33 Ry     beta= 0.30
     Davidson diagonalization with overlap
     ethr =  4.97E-05,  avg # of iterations =  1.0

     negative rho (up, down):  1.921E-03 0.000E+00

     total cpu time spent up to now is     1313.4 secs

     total energy              =   -3884.72812597 Ry
     estimated scf accuracy    <       0.29607334 Ry

     iteration # 10     ecut=    45.33 Ry     beta= 0.30
     Davidson diagonalization with overlap
     ethr =  3.71E-05,  avg # of iterations =  1.0

     negative rho (up, down):  1.139E-02 0.000E+00

     total cpu time spent up to now is     1441.6 secs

     total energy              =   -3884.71637435 Ry
     estimated scf accuracy    <       0.10692488 Ry

     iteration # 11     ecut=    45.33 Ry     beta= 0.30
     Davidson diagonalization with overlap
     ethr =  1.34E-05,  avg # of iterations = 11.0

     negative rho (up, down):  2.425E-02 0.000E+00

     total cpu time spent up to now is     1588.7 secs

     total energy              =   -3884.71565764 Ry
     estimated scf accuracy    <       0.09579161 Ry

     iteration # 12     ecut=    45.33 Ry     beta= 0.30
     Davidson diagonalization with overlap
     ethr =  1.20E-05,  avg # of iterations =  1.0

     negative rho (up, down):  1.330E-01 0.000E+00

     total cpu time spent up to now is     1717.0 secs

     total energy              =   -3884.71381882 Ry
     estimated scf accuracy    <       0.06500605 Ry

     iteration # 13     ecut=    45.33 Ry     beta= 0.30
     Davidson diagonalization with overlap
     ethr =  8.14E-06,  avg # of iterations =  1.0

     negative rho (up, down):  1.972E-01 0.000E+00

     total cpu time spent up to now is     1845.4 secs

     total energy              =   -3884.71483289 Ry
     estimated scf accuracy    <       0.06931105 Ry

     iteration # 14     ecut=    45.33 Ry     beta= 0.30
     Davidson diagonalization with overlap
     ethr =  8.14E-06,  avg # of iterations =  1.0

     negative rho (up, down):  1.520E-01 0.000E+00

     total cpu time spent up to now is     1973.7 secs

     total energy              =   -3884.71314992 Ry
     estimated scf accuracy    <       0.04629658 Ry

     iteration # 15     ecut=    45.33 Ry     beta= 0.30
     Davidson diagonalization with overlap
     ethr =  5.79E-06,  avg # of iterations =  1.0

     negative rho (up, down):  2.355E-01 0.000E+00

     total cpu time spent up to now is     2101.8 secs

     total energy              =   -3884.71055977 Ry
     estimated scf accuracy    <       0.03104239 Ry

     iteration # 16     ecut=    45.33 Ry     beta= 0.30
     Davidson diagonalization with overlap
     ethr =  3.89E-06,  avg # of iterations =  2.0

     negative rho (up, down):  2.483E-01 0.000E+00

     total cpu time spent up to now is     2237.7 secs

     total energy              =   -3884.70922024 Ry
     estimated scf accuracy    <       0.03160288 Ry

     iteration # 17     ecut=    45.33 Ry     beta= 0.30
     Davidson diagonalization with overlap
     ethr =  3.89E-06,  avg # of iterations =  1.0

     negative rho (up, down):  2.944E-01 0.000E+00

     total cpu time spent up to now is     2365.7 secs

     total energy              =   -3884.70753531 Ry
     estimated scf accuracy    <       0.01726871 Ry

     iteration # 18     ecut=    45.33 Ry     beta= 0.30
     Davidson diagonalization with overlap
     c_bands:  1 eigenvalues not converged
     ethr =  2.16E-06,  avg # of iterations = 20.0

     negative rho (up, down):  2.844E-01 0.000E+00

     total cpu time spent up to now is     2515.5 secs

     total energy              =   -3884.70610085 Ry
     estimated scf accuracy    <       0.01255984 Ry

     iteration # 19     ecut=    45.33 Ry     beta= 0.30
     Davidson diagonalization with overlap
     ethr =  1.57E-06,  avg # of iterations =  1.0

     negative rho (up, down):  2.502E-01 0.000E+00

     total cpu time spent up to now is     2643.4 secs

     total energy              =   -3884.70435201 Ry
     estimated scf accuracy    <       0.01035558 Ry

     iteration # 20     ecut=    45.33 Ry     beta= 0.30
     Davidson diagonalization with overlap
     ethr =  1.30E-06,  avg # of iterations =  2.0

     negative rho (up, down):  2.066E-01 0.000E+00

     total cpu time spent up to now is     2779.6 secs

     total energy              =   -3884.70233439 Ry
     estimated scf accuracy    <       0.00773898 Ry

     iteration # 21     ecut=    45.33 Ry     beta= 0.30
     Davidson diagonalization with overlap
     ethr =  9.69E-07,  avg # of iterations =  1.0

     negative rho (up, down):  2.130E-01 0.000E+00

     total cpu time spent up to now is     2907.9 secs

     total energy              =   -3884.70075436 Ry
     estimated scf accuracy    <       0.00495907 Ry

     iteration # 22     ecut=    45.33 Ry     beta= 0.30
     Davidson diagonalization with overlap
     ethr =  6.21E-07,  avg # of iterations =  2.0

     negative rho (up, down):  2.044E-01 0.000E+00

     total cpu time spent up to now is     3043.9 secs

     total energy              =   -3884.70060727 Ry
     estimated scf accuracy    <       0.00297944 Ry

     iteration # 23     ecut=    45.33 Ry     beta= 0.30
     Davidson diagonalization with overlap
     ethr =  3.73E-07,  avg # of iterations =  1.0

     negative rho (up, down):  1.724E-01 0.000E+00

     total cpu time spent up to now is     3171.5 secs

     total energy              =   -3884.70018302 Ry
     estimated scf accuracy    <       0.00229239 Ry

     iteration # 24     ecut=    45.33 Ry     beta= 0.30
     Davidson diagonalization with overlap
     ethr =  2.87E-07,  avg # of iterations =  2.0

     negative rho (up, down):  1.507E-01 0.000E+00

     total cpu time spent up to now is     3307.1 secs

     total energy              =   -3884.69994800 Ry
     estimated scf accuracy    <       0.00112946 Ry

     iteration # 25     ecut=    45.33 Ry     beta= 0.30
     Davidson diagonalization with overlap
     ethr =  1.41E-07,  avg # of iterations =  1.0

     negative rho (up, down):  1.149E-01 0.000E+00

     total cpu time spent up to now is     3434.5 secs

     total energy              =   -3884.69985355 Ry
     estimated scf accuracy    <       0.00066181 Ry

     iteration # 26     ecut=    45.33 Ry     beta= 0.30
     Davidson diagonalization with overlap
     ethr =  8.28E-08,  avg # of iterations =  2.0

     negative rho (up, down):  9.089E-02 0.000E+00

     total cpu time spent up to now is     3571.3 secs

     total energy              =   -3884.69982524 Ry
     estimated scf accuracy    <       0.00030931 Ry

     iteration # 27     ecut=    45.33 Ry     beta= 0.30
     Davidson diagonalization with overlap
     ethr =  3.87E-08,  avg # of iterations =  1.0

     negative rho (up, down):  7.358E-02 0.000E+00

     total cpu time spent up to now is     3699.3 secs

     total energy              =   -3884.69981730 Ry
     estimated scf accuracy    <       0.00019461 Ry

     iteration # 28     ecut=    45.33 Ry     beta= 0.30
     Davidson diagonalization with overlap
     ethr =  2.44E-08,  avg # of iterations =  1.0

     negative rho (up, down):  7.017E-02 0.000E+00

     total cpu time spent up to now is     3827.3 secs

     total energy              =   -3884.69981081 Ry
     estimated scf accuracy    <       0.00008292 Ry

     iteration # 29     ecut=    45.33 Ry     beta= 0.30
     Davidson diagonalization with overlap
     ethr =  1.04E-08,  avg # of iterations =  2.0

     negative rho (up, down):  6.513E-02 0.000E+00

     total cpu time spent up to now is     3964.0 secs

     total energy              =   -3884.69981191 Ry
     estimated scf accuracy    <       0.00004383 Ry

     iteration # 30     ecut=    45.33 Ry     beta= 0.30
     Davidson diagonalization with overlap
     ethr =  5.49E-09,  avg # of iterations =  2.0

     negative rho (up, down):  6.336E-02 0.000E+00

     total cpu time spent up to now is     4100.4 secs

     total energy              =   -3884.69980726 Ry
     estimated scf accuracy    <       0.00001886 Ry

     iteration # 31     ecut=    45.33 Ry     beta= 0.30
     Davidson diagonalization with overlap
     ethr =  2.36E-09,  avg # of iterations =  2.0

     negative rho (up, down):  6.446E-02 0.000E+00

     total cpu time spent up to now is     4235.9 secs

     total energy              =   -3884.69980455 Ry
     estimated scf accuracy    <       0.00000787 Ry

     iteration # 32     ecut=    45.33 Ry     beta= 0.30
     Davidson diagonalization with overlap
     ethr =  9.85E-10,  avg # of iterations =  2.0

     negative rho (up, down):  6.358E-02 0.000E+00

     total cpu time spent up to now is     4372.2 secs

     total energy              =   -3884.69980430 Ry
     estimated scf accuracy    <       0.00000504 Ry

     iteration # 33     ecut=    45.33 Ry     beta= 0.30
     Davidson diagonalization with overlap
     ethr =  6.31E-10,  avg # of iterations =  1.0

     negative rho (up, down):  6.384E-02 0.000E+00

     total cpu time spent up to now is     4499.3 secs

     total energy              =   -3884.69980347 Ry
     estimated scf accuracy    <       0.00000264 Ry

     iteration # 34     ecut=    45.33 Ry     beta= 0.30
     Davidson diagonalization with overlap
     ethr =  3.31E-10,  avg # of iterations =  1.0

     negative rho (up, down):  6.285E-02 0.000E+00

     total cpu time spent up to now is     4626.8 secs

     total energy              =   -3884.69980361 Ry
     estimated scf accuracy    <       0.00000173 Ry

     iteration # 35     ecut=    45.33 Ry     beta= 0.30
     Davidson diagonalization with overlap
     ethr =  2.16E-10,  avg # of iterations =  2.0

     negative rho (up, down):  6.210E-02 0.000E+00

     total cpu time spent up to now is     4754.8 secs

     End of self-consistent calculation

          k = 0.0000 0.0000 0.0000 (****** PWs)   bands (ev):

   -24.3111 -24.0857 -24.0721 -24.0135 -23.9756 -23.9333 -23.8694 -23.7836
   -23.7068 -23.6115 -23.4883 -23.3803 -23.2487 -23.0924 -22.9437 -22.7757
   -22.7232 -22.7074 -22.6451 -22.5985 -22.5886 -22.5304 -22.4713 -22.4064
   -22.3740 -22.2859 -22.2505 -22.1644 -22.1092 -22.0388 -21.9652 -21.9019
   -21.8277 -21.7237 -21.6764 -21.5387 -21.4943 -21.3520 -21.2725 -21.1533
   -21.0479 -20.9445 -20.8148 -20.7205 -20.6451 -20.6311 -20.5902 -20.5671
   -20.5307 -20.4865 -20.4678 -20.4078 -20.3539 -20.3200 -20.2427 -20.2288
   -20.1462 -20.0933 -20.0565 -19.9804 -19.9279 -19.8826 -19.8030 -19.7716
   -19.6633 -19.6162 -19.5858 -19.4620 -19.4048 -19.3572 -19.2656 -19.1988
   -19.1121 -19.0723 -19.0579 -19.0066 -18.8916 -18.8657 -18.8076 -18.7130
   -18.6600 -18.6488 -18.5633 -18.4976 -18.4574 -18.4429 -18.4057 -18.3535
   -18.3112 -18.2584 -18.2446 -18.2231 -18.2131 -18.2033 -18.2005 -18.1522
   -17.9744 -17.8595 -17.7475 -17.7214 -17.6638 -17.4455 -17.2919 -17.1702
   -17.0486 -16.8852 -16.8472 -16.8339 -16.8231 -16.7657 -16.7595 -16.6939
   -16.6499 -16.6428 -16.5507 -16.5336 -16.5061 -16.4595 -16.3693 -16.3476
   -16.2524 -16.2118 -16.1709 -16.1255 -16.0751 -16.0254 -15.9895 -15.9146
   -15.8782 -15.8548 -15.7996 -15.7587 -15.7384 -15.6820 -15.6193 -15.6085
   -15.5577 -15.4986 -15.3917 -15.1180 -14.9234 -14.7684 -14.6562 -14.5087
   -14.3979 -14.3817 -14.3610 -14.2874 -14.2454 -14.2436 -14.1533 -14.1424
   -14.1299 -14.0993 -14.0923 -14.0747 -14.0315 -13.9984 -13.9782 -13.9287
   -13.8578 -13.7916 -13.7488 -13.7176 -13.6064 -13.5931 -13.5244 -13.4653
   -13.4219 -13.4121 -13.3517 -13.3171 -13.3002 -13.2699 -13.2040 -13.1861
   -13.1561 -13.1238 -13.0176 -13.0102 -12.9387 -12.8778 -12.8479 -12.8247
   -12.7840 -12.7432 -12.7178 -12.6614 -12.5477 -12.5300 -12.4097 -12.3509
   -12.3021 -12.2645 -12.2378 -12.1404 -12.1385 -12.0909 -12.0805 -12.0274
   -12.0068 -11.9951 -11.9738 -11.9272 -11.9248 -11.9206 -11.8917 -11.8100
   -11.8056 -11.7978 -11.7771 -11.7618 -11.7483 -11.7061 -11.6901 -11.6723
   -11.6584 -11.6276 -11.6085 -11.5956 -11.5589 -11.5214 -11.5140 -11.4968
   -11.4956 -11.4685 -11.4553 -11.4125 -11.4049 -11.3532 -11.3341 -11.3262
   -11.2810 -11.2189 -11.2112 -11.1371 -11.1013 -11.0608 -11.0286 -10.9953
   -10.9648 -10.9338 -10.9005 -10.8649 -10.8226 -10.7512 -10.7271 -10.6949
   -10.6359 -10.6077 -10.5991 -10.5732 -10.5512 -10.5434 -10.4974 -10.4723
   -10.4359 -10.4021 -10.3817 -10.3600 -10.3413 -10.3322 -10.2970 -10.2847
   -10.2306 -10.2179 -10.1832 -10.1720 -10.1649 -10.1474 -10.1317 -10.1290
   -10.1010 -10.0639 -10.0185  -9.9826  -9.9567  -9.9117  -9.8308  -9.7908
    -9.7474  -9.6936  -9.6398  -9.6090  -9.5841  -9.5534  -9.4845  -9.4743
    -9.4212  -9.3911  -9.3660  -9.2688  -9.2346  -9.2114  -9.1916  -9.0649
    -8.9988  -8.8711  -8.7531  -8.6834  -8.5749  -8.5448  -8.5016  -8.4931
    -8.4484  -8.4279  -8.3806  -8.3390  -8.2670  -8.2363  -8.2021  -8.1651
    -8.1202  -8.0666  -7.9783  -7.9389  -7.9154  -7.8280  -7.7974  -7.7899
    -7.7710  -7.7268  -7.6756  -7.6438  -7.6070  -7.4985  -7.4640  -7.3954
    -7.3295  -7.2784  -7.2020  -7.1964  -7.1909  -7.1772  -7.1499  -7.1479
    -7.1174  -7.0903  -7.0853  -7.0575  -7.0446  -7.0270  -7.0210  -6.9933
    -6.9791  -6.9654  -6.9269  -6.9134  -6.8798  -6.8611  -6.8543  -6.8475
    -6.8384  -6.8276  -6.8225  -6.8142  -6.7996  -6.7877  -6.7848  -6.7826
    -6.7596  -6.7538  -6.7419  -6.7200  -6.7131  -6.7044  -6.6822  -6.6750
    -6.6662  -6.6403  -6.6365  -6.6250  -6.6027  -6.5969  -6.5409  -6.5183
    -6.4963  -6.4553  -6.4193  -6.4089  -6.3801  -6.3206  -6.3052  -6.2933
    -6.2579  -6.2283  -6.2174  -6.1371  -6.0880  -5.9960  -5.9850  -5.9722
    -5.9411  -5.9219  -5.8711  -5.8579  -5.8369  -5.7759  -5.7441  -5.7214
    -5.7161  -5.6704  -5.6444  -5.6141  -5.5811  -5.5606  -5.5131  -5.4767
    -5.4684  -5.4149  -5.3551  -5.3259  -5.2820  -5.1885  -5.1438  -5.1187
    -5.0056  -4.9945  -4.9077  -4.8784  -4.8553  -4.8008  -4.7713  -4.6919
    -4.6762  -4.6451  -4.6005  -4.5804  -4.5476  -4.5199  -4.4241  -4.3340
    -4.2849  -4.2573  -4.2454  -4.0862  -3.8591  -3.6080  -3.3970  -3.3228
    -3.2408  -3.1595  -3.0864  -3.0624  -3.0461  -3.0306  -3.0254  -3.0194
    -2.9965  -2.9769  -2.9538  -2.9405  -2.9040  -2.8560  -2.8151  -2.7536
    -2.7363  -2.6746  -2.5993  -2.4890  -2.4642  -2.4435  -2.3378  -2.2548
    -2.2062  -2.1022  -2.0630  -2.0280  -1.9666  -1.8703  -1.8178  -1.7427
    -1.7418  -1.5617  -1.4302  -1.3722  -1.2799  -1.2211  -1.1038  -1.0787

     the Fermi energy is    -5.7307 ev

!    total energy              =   -3884.69980469 Ry
     total all-electron energy =    -18796.223593 Ry
     estimated scf accuracy    <       0.00000077 Ry
     smearing contrib. (-TS)   =      -0.01387944 Ry
     internal energy E=F+TS    =   -3884.68592525 Ry

     The total energy is F=E-TS. E is the sum of the following terms:
     one-electron contribution =  -43043.28094193 Ry
     hartree contribution      =   21602.12134139 Ry
     xc contribution           =    -918.27230473 Ry
     ewald contribution        =   19875.75720646 Ry
     DFT-D3 Dispersion         =      -0.40439462 Ry
     one-center paw contrib.   =   -1400.60683182 Ry

     convergence has been achieved in  35 iterations

     negative rho (up, down):  6.210E-02 0.000E+00

     Forces acting on atoms (cartesian axes, Ry/au):

     atom    1 type  1   force =     0.03121450    0.12984381   -0.03809789
     atom    2 type  1   force =    -0.15795393    0.22926195   -0.07368239
     atom    3 type  1   force =    -0.29415292    0.15553525    0.03692126
     atom    4 type  1   force =    -0.29292968   -0.02942525    0.04335911
     atom    5 type  1   force =    -0.20791884   -0.19923661    0.04355641
     atom    6 type  1   force =    -0.02199784   -0.28599689    0.04237770
     atom    7 type  1   force =     0.15498310   -0.24194689    0.04251175
     atom    8 type  1   force =     0.25092319   -0.14233994    0.04299522
     atom    9 type  1   force =     0.28806236   -0.02633721    0.04317090
     atom   10 type  1   force =     0.27164723    0.09801195    0.04290922
     atom   11 type  1   force =     0.18318058    0.21874084    0.04160756
     atom   12 type  1   force =     0.02648986    0.28180734    0.04468757
     atom   13 type  1   force =    -0.08612994    0.27576738    0.04517802
     atom   14 type  1   force =    -0.10956389    0.27174205    0.04516725
     atom   15 type  1   force =    -0.12421093    0.26967625    0.04430360
     atom   16 type  1   force =    -0.15322564    0.25550166   -0.05469297
     atom   17 type  1   force =    -0.00947632   -0.17263260    0.12754239
     atom   18 type  1   force =     0.17882213   -0.29096367   -0.02515222
     atom   19 type  1   force =     0.27214261   -0.13484617    0.04197201
     atom   20 type  1   force =     0.29109711    0.02677214    0.04363597
     atom   21 type  1   force =     0.20990243    0.19709860    0.04247279
     atom   22 type  1   force =     0.02510153    0.28613111    0.04267791
     atom   23 type  1   force =    -0.15319363    0.24371936    0.04277915
     atom   24 type  1   force =    -0.25037958    0.14408285    0.04296669
     atom   25 type  1   force =    -0.28831529    0.02775073    0.04321471
     atom   26 type  1   force =    -0.27218643   -0.09625270    0.04287520
     atom   27 type  1   force =    -0.18475110   -0.21546344    0.04395557
     atom   28 type  1   force =    -0.02878206   -0.28275784    0.04391896
     atom   29 type  1   force =     0.08573101   -0.27769504    0.04443458
     atom   30 type  1   force =     0.11088324   -0.27508998    0.04381644
     atom   31 type  1   force =     0.13620363   -0.29562642    0.04234607
     atom   32 type  1   force =     0.13759325   -0.23237768   -0.04349886
     atom   33 type  1   force =    -0.05528591    0.09196321   -0.10392636
     atom   34 type  1   force =    -0.00620428    0.00300686    0.07604127
     atom   35 type  1   force =    -0.02928841    0.01043530   -0.04835045
     atom   36 type  1   force =    -0.02679908   -0.00260618   -0.04355305
     atom   37 type  1   force =    -0.01962243   -0.01802788   -0.04240903
     atom   38 type  1   force =    -0.00237900   -0.02724338   -0.04203069
     atom   39 type  1   force =     0.01341921   -0.02237154   -0.04199251
     atom   40 type  1   force =     0.02188245   -0.01343748   -0.04169528
     atom   41 type  1   force =     0.02598089   -0.00306719   -0.04177140
     atom   42 type  1   force =     0.02474079    0.00811212   -0.04160084
     atom   43 type  1   force =     0.01830514    0.01889096   -0.04246751
     atom   44 type  1   force =     0.00416116    0.02402675   -0.04296565
     atom   45 type  1   force =    -0.00702334    0.02289308   -0.04244826
     atom   46 type  1   force =    -0.00815996    0.02260606   -0.03984286
     atom   47 type  1   force =    -0.05218891    0.10102708   -0.09260730
     atom   48 type  1   force =    -0.04197446    0.06641206    0.08040457
     atom   49 type  1   force =     0.02480440    0.00053048    0.06529299
     atom   50 type  1   force =     0.08994889   -0.07375157   -0.09253417
     atom   51 type  1   force =     0.02636940    0.00316331   -0.04014204
     atom   52 type  1   force =     0.01838571    0.01905408   -0.04269603
     atom   53 type  1   force =     0.00136739    0.02672851   -0.04241056
     atom   54 type  1   force =    -0.01484208    0.02249623   -0.04193190
     atom   55 type  1   force =    -0.02343142    0.01181639   -0.04171916
     atom   56 type  1   force =    -0.02555490    0.00201133   -0.04192736
     atom   57 type  1   force =    -0.02475112   -0.00906440   -0.04184549
     atom   58 type  1   force =    -0.01754206   -0.02052886   -0.04099800
     atom   59 type  1   force =    -0.00259554   -0.02666037   -0.04347646
     atom   60 type  1   force =     0.00872231   -0.02275190   -0.04313432
     atom   61 type  1   force =     0.00972635   -0.02346001   -0.04374369
     atom   62 type  1   force =     0.01256830   -0.02622208   -0.05412286
     atom   63 type  1   force =     0.00907754   -0.01405008    0.08053233
     atom   64 type  1   force =     0.04784606   -0.07562251   -0.03506411
     atom   65 type  1   force =    -0.02448878   -0.03873199    0.01841039
     atom   66 type  1   force =    -0.00774871   -0.01071855   -0.03145614
     atom   67 type  1   force =    -0.02633594    0.01881566    0.01991969
     atom   68 type  1   force =    -0.03666151    0.00463059   -0.00400269
     atom   69 type  1   force =    -0.03019016   -0.02010991   -0.00185314
     atom   70 type  1   force =    -0.00923842   -0.03561223   -0.00165911
     atom   71 type  1   force =     0.01514818   -0.03364536   -0.00221100
     atom   72 type  1   force =     0.02990561   -0.02187248   -0.00304292
     atom   73 type  1   force =     0.03629958   -0.00739147   -0.00291698
     atom   74 type  1   force =     0.03581115    0.00796327   -0.00260169
     atom   75 type  1   force =     0.02702810    0.02323326   -0.00213535
     atom   76 type  1   force =     0.00733019    0.03253742   -0.00102835
     atom   77 type  1   force =    -0.00884202    0.03502748   -0.00335935
     atom   78 type  1   force =    -0.01397101    0.03426230   -0.00251466
     atom   79 type  1   force =    -0.01505367    0.03385724    0.00251480
     atom   80 type  1   force =     0.00130649   -0.00468008   -0.03039303
     atom   81 type  1   force =    -0.00296542    0.03240442    0.04840642
     atom   82 type  1   force =    -0.00399654    0.01465828   -0.02273236
     atom   83 type  1   force =     0.03510011   -0.01056179   -0.00202191
     atom   84 type  1   force =     0.03443736    0.00806171   -0.00164832
     atom   85 type  1   force =     0.02150020    0.02996809   -0.00196969
     atom   86 type  1   force =    -0.00323665    0.03643070   -0.00181970
     atom   87 type  1   force =    -0.02399251    0.02831872   -0.00239108
     atom   88 type  1   force =    -0.03394406    0.01489692   -0.00308740
     atom   89 type  1   force =    -0.03713075   -0.00062081   -0.00300823
     atom   90 type  1   force =    -0.03322792   -0.01676433   -0.00236645
     atom   91 type  1   force =    -0.01851421   -0.02992921   -0.00218853
     atom   92 type  1   force =     0.00136936   -0.03341440   -0.00184422
     atom   93 type  1   force =     0.01246865   -0.03299233   -0.00377671
     atom   94 type  1   force =     0.01389609   -0.03463743   -0.00579244
     atom   95 type  1   force =     0.01594144   -0.03203602    0.01485936
     atom   96 type  1   force =    -0.00554162    0.00960191   -0.07913176
     atom   97 type  1   force =     0.02479085   -0.00723143   -0.03812111
     atom   98 type  1   force =    -0.01206578    0.01403970    0.00413984
     atom   99 type  1   force =    -0.03693232    0.01496095   -0.00129233
     atom  100 type  1   force =    -0.03747983   -0.00934457    0.00165556
     atom  101 type  1   force =    -0.02145595   -0.02992292    0.00190574
     atom  102 type  1   force =     0.00395407   -0.03672546    0.00228848
     atom  103 type  1   force =     0.02388780   -0.02766916    0.00257691
     atom  104 type  1   force =     0.03403707   -0.01508090    0.00305332
     atom  105 type  1   force =     0.03721444    0.00038224    0.00275058
     atom  106 type  1   force =     0.03264650    0.01595685    0.00213757
     atom  107 type  1   force =     0.02058889    0.02998164    0.00229607
     atom  108 type  1   force =    -0.00092878    0.03493369    0.00234589
     atom  109 type  1   force =    -0.01258527    0.03466202    0.00219032
     atom  110 type  1   force =    -0.01259784    0.03091095    0.00307907
     atom  111 type  1   force =    -0.00947784    0.01858531   -0.00579841
     atom  112 type  1   force =    -0.00069740    0.00255441    0.01719836
     atom  113 type  1   force =    -0.00214812   -0.01713536    0.01812829
     atom  114 type  1   force =     0.02168364   -0.01159379   -0.01247875
     atom  115 type  1   force =     0.03603132    0.00001893    0.00219233
     atom  116 type  1   force =     0.03075827    0.02105645    0.00177704
     atom  117 type  1   force =     0.00927434    0.03551625    0.00168175
     atom  118 type  1   force =    -0.01497285    0.03340368    0.00212787
     atom  119 type  1   force =    -0.03030228    0.02126542    0.00287424
     atom  120 type  1   force =    -0.03597489    0.00728882    0.00293318
     atom  121 type  1   force =    -0.03637980   -0.00821057    0.00276567
     atom  122 type  1   force =    -0.02819027   -0.02394023    0.00222032
     atom  123 type  1   force =    -0.00779021   -0.03610385    0.00213032
     atom  124 type  1   force =     0.00894460   -0.03420720    0.00197350
     atom  125 type  1   force =     0.01423819   -0.03483261    0.00159929
     atom  126 type  1   force =     0.01374054   -0.03574471   -0.00627860
     atom  127 type  1   force =     0.01179216   -0.02534383    0.01262792
     atom  128 type  1   force =     0.00365557   -0.00652190    0.01268223
     atom  129 type  1   force =     0.02515897    0.01264873   -0.00926591
     atom  130 type  1   force =    -0.01485095    0.04523740   -0.00784681
     atom  131 type  1   force =     0.00272054   -0.00345830    0.03690400
     atom  132 type  1   force =    -0.02092066    0.00892738    0.04205805
     atom  133 type  1   force =    -0.02386586   -0.00996485    0.04387998
     atom  134 type  1   force =    -0.01218932   -0.02512477    0.04204459
     atom  135 type  1   force =     0.00663475   -0.02585316    0.04167378
     atom  136 type  1   force =     0.01862011   -0.01816737    0.04162690
     atom  137 type  1   force =     0.02464081   -0.00808772    0.04155380
     atom  138 type  1   force =     0.02596345    0.00260587    0.04167583
     atom  139 type  1   force =     0.02220098    0.01413182    0.04218509
     atom  140 type  1   force =     0.01097154    0.02202436    0.04329883
     atom  141 type  1   force =    -0.00239141    0.02394401    0.04212074
     atom  142 type  1   force =    -0.01036034    0.02816999    0.04147470
     atom  143 type  1   force =    -0.01510498    0.03730266    0.04615023
     atom  144 type  1   force =    -0.01803783    0.03133819   -0.01249812
     atom  145 type  1   force =    -0.01814791   -0.00006258    0.07618869
     atom  146 type  1   force =     0.02476846   -0.02573438   -0.01531779
     atom  147 type  1   force =     0.02968848   -0.00670600    0.04761204
     atom  148 type  1   force =     0.02537514    0.01124836    0.04368760
     atom  149 type  1   force =     0.01091569    0.02511906    0.04277485
     atom  150 type  1   force =    -0.00780376    0.02570805    0.04185363
     atom  151 type  1   force =    -0.02011214    0.01767948    0.04128064
     atom  152 type  1   force =    -0.02491061    0.00722535    0.04154326
     atom  153 type  1   force =    -0.02550557   -0.00390118    0.04147702
     atom  154 type  1   force =    -0.02175876   -0.01532235    0.04142371
     atom  155 type  1   force =    -0.00844430   -0.02428102    0.04144147
     atom  156 type  1   force =     0.00544670   -0.02484000    0.04243375
     atom  157 type  1   force =     0.00852873   -0.02218574    0.04321201
     atom  158 type  1   force =     0.00984212   -0.02003013    0.03658466
     atom  159 type  1   force =    -0.00019229   -0.00721019    0.01716593
     atom  160 type  1   force =     0.01752361   -0.02410153   -0.02783452
     atom  161 type  1   force =    -0.01305753    0.03289671   -0.17536424
     atom  162 type  1   force =    -0.06535283    0.08225443    0.08730937
     atom  163 type  1   force =    -0.26319358    0.04897242   -0.04630932
     atom  164 type  1   force =    -0.26952785   -0.11842788   -0.04721327
     atom  165 type  1   force =    -0.12418288   -0.26174473   -0.04308436
     atom  166 type  1   force =     0.07472058   -0.27701471   -0.04192047
     atom  167 type  1   force =     0.21259090   -0.19452513   -0.04241736
     atom  168 type  1   force =     0.27600243   -0.08643619   -0.04289456
     atom  169 type  1   force =     0.28750845    0.03469251   -0.04282214
     atom  170 type  1   force =     0.23857561    0.16099103   -0.04209161
     atom  171 type  1   force =     0.10911463    0.26243460   -0.04211177
     atom  172 type  1   force =    -0.04423235    0.28124615   -0.04399657
     atom  173 type  1   force =    -0.10606338    0.27495744   -0.04173390
     atom  174 type  1   force =    -0.10918180    0.26186519   -0.02844939
     atom  175 type  1   force =    -0.00287279    0.01268690   -0.04833971
     atom  176 type  1   force =    -0.03240353    0.05287985    0.07726209
     atom  177 type  1   force =     0.02730255   -0.06901454    0.09607597
     atom  178 type  1   force =     0.00765215   -0.00797595   -0.06414735
     atom  179 type  1   force =     0.27119256   -0.05954096   -0.03526399
     atom  180 type  1   force =     0.26968935    0.11552069   -0.04237058
     atom  181 type  1   force =     0.12641810    0.25949157   -0.04253936
     atom  182 type  1   force =    -0.07169092    0.27783783   -0.04231990
     atom  183 type  1   force =    -0.21166645    0.19588848   -0.04272019
     atom  184 type  1   force =    -0.27515340    0.08767330   -0.04297112
     atom  185 type  1   force =    -0.28694265   -0.03334100   -0.04290933
     atom  186 type  1   force =    -0.23884732   -0.15851641   -0.04273870
     atom  187 type  1   force =    -0.11199084   -0.26050520   -0.04303572
     atom  188 type  1   force =     0.04110116   -0.28355384   -0.04299012
     atom  189 type  1   force =     0.10475091   -0.27507811   -0.04502046
     atom  190 type  1   force =     0.10558551   -0.25438157   -0.04542074
     atom  191 type  1   force =     0.05602935   -0.11138363    0.09832674
     atom  192 type  1   force =    -0.00697345    0.01266906   -0.01434472
     atom  193 type  2   force =     0.00211923   -0.01239382    0.01423478
     atom  194 type  3   force =     0.00219290    0.00418486   -0.00958208
     atom  195 type  3   force =     0.00404816    0.00460424   -0.00361819
     atom  196 type  3   force =    -0.00772192    0.00714734   -0.00715166
     atom  197 type  3   force =     0.00186334   -0.00096210   -0.00149211

     Total force =     1.685735     Total SCF correction =     0.000953

     BFGS Geometry Optimization
     Energy error            =      0.0E+00 Ry
     Gradient error          =      2.9E-01 Ry/Bohr

     number of scf cycles    =   1
     number of bfgs steps    =   0

     energy             new  =   -3884.6998046895 Ry

     new trust radius        =       0.3424468508 bohr
     new conv_thr            =       0.0000010000 Ry


ATOMIC_POSITIONS (angstrom)
C               30.4537116589       21.9105268814        1.0806619492
C               29.9985492216       25.8669207648        7.3572617612
C               27.2324084417       28.8769231601        0.0179695737    0   0   0
C               23.1842920721       30.0662509373        0.0171169542    0   0   0
C               19.1661798195       28.8015785909        0.0139660156    0   0   0
C               16.9078558270       25.2726117551        0.0131251452    0   0   0
C               17.5109722178       21.1124548595        0.0121721040    0   0   0
C               20.3619411575       17.9823600709        0.0118061334    0   0   0
C               24.3091265243       16.4190661989        0.0108451698    0   0   0
C               28.5500075909       16.6238126688        0.0093827525    0   0   0
C               32.2478668190       18.6804381467        0.0086398353    0   0   0
C               34.2723701106       22.3703930714        0.0069866670    0   0   0
C               33.9954114585       26.5929906427        0.0065072083    0   0   0
C               32.5577418032       30.6105005714        0.0053494007    0   0   0
C               30.9410803883       34.5580950653        0.0088053561    0   0   0
C               28.9142005785       38.5196795461        7.3705610741
C               30.7311720896       22.9453981510        0.1998662222    0   0   0
C               29.4231760189       26.8052851447        7.3916716808
C               25.9628771329       29.5200672808        0.0179423026    0   0   0
C               21.7646280812       29.9321529434        0.0156112086    0   0   0
C               18.1315169709       27.8219232482        0.0137042636    0   0   0
C               16.7912570834       23.8528728864        0.0124334577    0   0   0
C               18.2747815938       19.9096888172        0.0121896666    0   0   0
C               21.5985924225       17.2753149142        0.0114852923    0   0   0
C               25.7275810495       16.2853839619        0.0102933055    0   0   0
C               29.8912357576       17.1031404051        0.0089989290    0   0   0
C               33.1709849467       19.7642198148        0.0083183218    0   0   0
C               34.4102476460       23.7862434732        0.0065638659    0   0   0
C               33.5721785028       27.9511568862        0.0060836325    0   0   0
C               32.0253120384       31.9302958858        0.0051827615    0   0   0
C               30.3486144465       35.8529941478        0.0114293296    0   0   0
C               28.3210115832       39.5022752315        7.3435642233
C               30.9694982089       23.9920537102        1.1848718202
C               28.9080271043       27.5451459164        1.2801543814
C               25.2772109983       29.7512027973        1.2271638740
C               21.0575308458       29.7568481021        1.2256413278
C               17.6995781129       27.2366473864        1.2254099508
C               16.8556718407       23.1277842691        1.2243984548
C               18.7432248826       19.3537033240        1.2242098489
C               22.2636288848       16.9828475001        1.2235437437
C               26.4546259902       16.2906719967        1.2222208132
C               30.5441035399       17.4227305122        1.2210402733
C               33.5678649804       20.3732879055        1.2197716030
C               34.3969256558       24.5097670794        1.2181267680
C               33.3286128251       28.6328554117        1.2175106525
C               31.7570060515       32.5999424096        1.2186102643
C               29.9972929824       36.5590235576        1.1897553543
C               27.8313688310       40.2864529781        1.2814598193
C               30.5445157744       25.2610111952        1.2699421362
C               27.8849157348       28.4439493198        1.1972513836
C               23.9084557953       30.0204808702        1.2305367693
C               19.7739393764       29.2015348476        1.2256262232
C               17.0953249773       25.9756673009        1.2250215910
C               17.2147294643       21.7770561874        1.2243639087
C               19.7726055746       18.4079885956        1.2240351111
C               23.5968705078       16.5618798957        1.2230425682
C               27.8425047940       16.4562861712        1.2214935159
C               31.7087278019       18.1946623847        1.2217196903
C               34.1112117371       21.6618399012        1.2181685351
C               34.1793464001       25.8915729171        1.2175195249
C               32.8272295919       29.9380756938        1.2165233948
C               31.2281257013       33.8902824782        1.2109740966
C               29.3512868712       37.7608936496        1.2810399110
C               27.1641450067       41.3405000202        1.2200697758
C               30.8053699401       21.9057066231        2.4919684503
C               30.2464888878       25.9065411906        2.4668458191
C               27.2325006367       28.8870124653        2.4951791761
C               23.1620492629       30.0478024122        2.4820946166
C               19.1502596661       28.7905329248        2.4811578156
C               16.9032975391       25.2538012621        2.4803108975
C               17.5201851662       21.0952428610        2.4792941117
C               20.3775647803       17.9707913987        2.4783924498
C               24.3285857901       16.4155968646        2.4774676413
C               28.5689840631       16.6277478214        2.4760272262
C               32.2728857910       18.6845353767        2.4753757262
C               34.2960296460       22.3843638111        2.4737300307
C               33.9988437251       26.6131036274        2.4720877689
C               32.5532327479       30.6300904390        2.4722363895
C               30.9419626134       34.5801831177        2.4713732732
C               29.0095369863       38.3895581067        2.4655191226
C               31.2415298076       23.3456751529        2.5084386437
C               29.4044871901       27.0505582302        2.4714693902
C               25.9855238793       29.4962055027        2.4841649532
C               21.7826261472       29.9297527948        2.4824020230
C               18.1425729587       27.8382309524        2.4808407367
C               16.7888599038       23.8721405289        2.4796832505
C               18.2620238786       19.9243897781        2.4791743224
C               21.5805984519       17.2832561513        2.4780198373
C               25.7080671626       16.2843924325        2.4769428709
C               29.8741766704       17.0932141122        2.4755143740
C               33.1771972551       19.7375363736        2.4746584802
C               34.4334673557       23.7671822107        2.4730858449
C               33.5814549747       27.9339871117        2.4716326976
C               32.0376593029       31.9139891533        2.4707962247
C               30.3704511844       35.8426171878        2.4740304002
C               28.2525474083       39.6336464777        2.4730517276
C               31.0115449792       23.9395848873        3.7060378861
C               28.9019185329       27.5474446896        3.7300193999
C               25.2667723576       29.7304339966        3.7168442266
C               21.0515805431       29.7508932094        3.7184250369
C               17.6981106491       27.2305783899        3.7169423588
C               16.8591035718       23.1228510148        3.7157780771
C               18.7483910988       19.3504013831        3.7159170107
C               22.2698316261       16.9820357375        3.7152408975
C               26.4604082799       16.2928290566        3.7139657816
C               30.5480289663       17.4269388969        3.7116693144
C               33.5692509928       20.3791077990        3.7103130593
C               34.3947689364       24.5158034242        3.7089727370
C               33.3260021841       28.6400743329        3.7091557718
C               31.7597028973       32.6107643891        3.7089456984
C               30.0640547599       36.5033335206        3.6930730522
C               27.9296441466       40.1751092647        3.7622020634
C               30.5295967445       25.2513489253        3.7411134761
C               27.8430777369       28.4672065999        3.7159273595
C               23.9102234136       29.9985190328        3.7188784414
C               19.7802184874       29.2020675787        3.7177522280
C               17.0993086302       25.9804312594        3.7164291741
C               17.2145453976       21.7829359271        3.7156973953
C               19.7684309604       18.4121931590        3.7157076427
C               23.5912535740       16.5649486317        3.7148000233
C               27.8362588864       16.4568737838        3.7130844068
C               31.7028305205       18.1930086190        3.7111911520
C               34.1079614555       21.6566881635        3.7093183193
C               34.1802245491       25.8852167839        3.7091622038
C               32.8308326466       29.9319277391        3.7089791136
C               31.2368011850       33.8928435292        3.7026521569
C               29.4116406787       37.7338506038        3.6956768321
C               27.2100690958       41.3086355619        4.3180608652
C               30.4496307528       21.8497709551        3.8594080516
C               30.0735754224       25.7689946909        4.9716309949
C               27.2277917359       28.8626108462        4.9695582279
C               23.1716227619       30.0568968927        4.9729975830
C               19.1532179622       28.7962241145        4.9739966474
C               16.9020004926       25.2592944829        4.9717206468
C               17.5149873522       21.0990285855        4.9707384376
C               20.3714267044       17.9724041212        4.9701805764
C               24.3221703498       16.4151765032        4.9692168279
C               28.5637295672       16.6248316022        4.9674374375
C               32.2598992315       18.6878712346        4.9666433665
C               34.2779181458       22.3817144811        4.9648855141
C               33.9948990564       26.6057655661        4.9639238196
C               32.5539384962       30.6269826925        4.9633959732
C               30.9443803288       34.5842861340        4.9656130839
C               29.0647383200       38.3369345472        4.9329412848
C               30.7213674223       22.9451904332        4.8062467055
C               29.3407215275       26.9442659880        4.9593338101
C               25.9719645892       29.4981385892        4.9756008995
C               21.7775442264       29.9335724644        4.9742261082
C               18.1373178608       27.8349582820        4.9728916611
C               16.7879371717       23.8666069522        4.9710215867
C               18.2644034776       19.9192356575        4.9705480097
C               21.5852819125       17.2791169867        4.9697669268
C               25.7139632958       16.2836983213        4.9686709993
C               29.8796324277       17.0945205111        4.9664468225
C               33.1670687118       19.7512741162        4.9653398954
C               34.4136766954       23.7730378834        4.9642503396
[...]
     atom  189 type  1   force =     0.00074782   -0.00007876   -0.00230987
     atom  190 type  1   force =     0.00240549   -0.00523637    0.00089402
     atom  191 type  1   force =    -0.00036561   -0.00153656    0.00054329
     atom  192 type  1   force =     0.00038399   -0.00055736   -0.00078763
     atom  193 type  2   force =     0.00048965    0.00003533   -0.00100878
     atom  194 type  3   force =    -0.00034705   -0.00003716   -0.00127068
     atom  195 type  3   force =     0.00170869    0.00048546   -0.00097395
     atom  196 type  3   force =     0.00080818    0.00009972   -0.00255316
     atom  197 type  3   force =    -0.00008167    0.00200705   -0.00112983

     Total force =     0.037984     Total SCF correction =     0.000535
     Energy error            =      1.6E-03 Ry
     Gradient error          =      9.5E-03 Ry/Bohr

     number of scf cycles    =  30
     number of bfgs steps    =  29

     energy             old  =   -3886.2347792381 Ry
     energy             new  =   -3886.2363576552 Ry

     CASE: energy            _new < energy            _old

     new trust radius        =       0.0561473852 bohr
     new conv_thr            =       0.0000000953 Ry


ATOMIC_POSITIONS (angstrom)
C               30.7764175816       21.8824310445        0.8849826801
C               29.7654679912       25.5295432316        7.1471523868
C               27.2324084417       28.8769231601        0.0179695737    0   0   0
C               23.1842920721       30.0662509373        0.0171169542    0   0   0
C               19.1661798195       28.8015785909        0.0139660156    0   0   0
C               16.9078558270       25.2726117551        0.0131251452    0   0   0
C               17.5109722178       21.1124548595        0.0121721040    0   0   0
C               20.3619411575       17.9823600709        0.0118061334    0   0   0
C               24.3091265243       16.4190661989        0.0108451698    0   0   0
C               28.5500075909       16.6238126688        0.0093827525    0   0   0
C               32.2478668190       18.6804381467        0.0086398353    0   0   0
C               34.2723701106       22.3703930714        0.0069866670    0   0   0
C               33.9954114585       26.5929906427        0.0065072083    0   0   0
C               32.5577418032       30.6105005714        0.0053494007    0   0   0
C               30.9410803883       34.5580950653        0.0088053561    0   0   0
C               28.8481429654       38.4806912146        7.3029115391
C               30.7311720896       22.9453981510        0.1998662222    0   0   0
C               29.1950427012       26.6372020709        7.2201616847
C               25.9628771329       29.5200672808        0.0179423026    0   0   0
C               21.7646280812       29.9321529434        0.0156112086    0   0   0
C               18.1315169709       27.8219232482        0.0137042636    0   0   0
C               16.7912570834       23.8528728864        0.0124334577    0   0   0
C               18.2747815938       19.9096888172        0.0121896666    0   0   0
C               21.5985924225       17.2753149142        0.0114852923    0   0   0
C               25.7275810495       16.2853839619        0.0102933055    0   0   0
C               29.8912357576       17.1031404051        0.0089989290    0   0   0
C               33.1709849467       19.7642198148        0.0083183218    0   0   0
C               34.4102476460       23.7862434732        0.0065638659    0   0   0
C               33.5721785028       27.9511568862        0.0060836325    0   0   0
C               32.0253120384       31.9302958858        0.0051827615    0   0   0
C               30.3486144465       35.8529941478        0.0114293296    0   0   0
C               28.2096507915       39.5615892364        7.3086326620
C               30.6652866736       24.1706609452        0.9978853260
C               29.0353982495       27.5186143747        1.2609668658
C               25.3105576968       29.8320432649        1.1933545673
C               21.0371438619       29.8211573199        1.1859674326
C               17.6238655405       27.2862394012        1.1812771505
C               16.7667401373       23.1209979677        1.1821060171
C               18.6698337973       19.2987462424        1.1867765127
C               22.2261301493       16.9062071630        1.1892236430
C               26.4570548916       16.2041474980        1.1854724818
C               30.5911872689       17.3398837877        1.1790602684
C               33.6718712418       20.3136475060        1.1719655889
C               34.4900228700       24.5036471465        1.1822719900
C               33.3549006566       28.6324982678        1.1939748894
C               31.7631092579       32.6150772805        1.1894760268
C               29.9321025282       36.6279254296        1.1093261105
C               27.7893109829       40.3947805242        1.3387295734
C               30.3652085239       25.5151837389        1.1650680337
C               27.9297271870       28.3691552354        1.1099942744
C               23.9198082967       30.1129606113        1.1902853009
C               19.7349158011       29.2619434153        1.1854771389
C               17.0103219939       26.0073724899        1.1789227967
C               17.1287607740       21.7500456591        1.1799830675
C               19.7112482977       18.3375436870        1.1840240549
C               23.5772284798       16.4793274058        1.1870532206
C               27.8639877404       16.3712562857        1.1847001777
C               31.7715713050       18.1230227543        1.1787226440
C               34.2213389900       21.6212024522        1.1682539944
C               34.2660465511       25.9009160210        1.1806660134
C               32.8365586635       29.9450994067        1.1904327622
C               31.2299616315       33.9209558559        1.1938112731
C               29.2804259391       37.8350030996        1.3067226391
C               27.3383799631       41.0708922614        0.3715473765
C               30.9784741597       22.0912237939        2.3138221028
C               30.3869026655       26.1042392552        2.4528122966
C               27.3106935408       28.9061304451        2.4018455824
C               23.1712072440       30.1607731541        2.4222401524
C               19.0925086706       28.8706502606        2.4168203472
C               16.7929837580       25.2906012243        2.4111709188
C               17.3987233062       21.0590567945        2.4151436957
C               20.2844156102       17.8705586417        2.4212028302
C               24.2977161133       16.2908698550        2.4223697358
C               28.6041727112       16.4987743976        2.4166493865
C               32.3743281074       18.5801210184        2.4058567630
C               34.4479166317       22.3286011924        2.4032538192
C               34.1093097974       26.6108335753        2.4244697985
C               32.5650587888       30.6292351794        2.4311948500
C               30.9155060380       34.6321936276        2.3998755514
C               28.9117283901       38.4780817361        2.4689142111
C               31.0333606905       23.5513943942        2.2734709350
C               29.5662763152       27.2382254142        2.5040028936
C               26.0384309897       29.5657308108        2.4057881302
C               21.7561980709       30.0215261317        2.4205363441
C               18.0521597672       27.9015359331        2.4143839021
C               16.6723553451       23.8719955621        2.4112432224
C               18.1550928229       19.8537510987        2.4170208420
C               21.5215323242       17.1672820769        2.4223898547
C               25.7138675263       16.1549275920        2.4211611623
C               29.9450308776       16.9741555441        2.4140994752
C               33.3127269797       19.6509060733        2.4016819393
C               34.5765361008       23.7462164147        2.4089747867
C               33.6470394042       27.9494711100        2.4302758360
C               32.0315057782       31.9382404634        2.4277402344
C               30.3090027166       35.9270948643        2.3927061524
C               28.1801770867       39.7628990765        2.5155377231
C               31.0752281543       24.1068190670        3.5279881481
C               29.0490242004       27.7465125362        3.7265944751
C               25.3372730905       29.8357239888        3.6427506845
C               21.0257775038       29.8597676063        3.6486013734
C               17.5904442683       27.3173434592        3.6441445469
C               16.7088000728       23.1326871692        3.6421741885
C               18.6037957175       19.2710866490        3.6502529460
C               22.1878287112       16.8464875366        3.6546925045
C               26.4588941392       16.1339641430        3.6514482392
C               30.6299328438       17.2798066721        3.6412157320
C               33.7357933586       20.2629299304        3.6300019564
C               34.5687524024       24.4753622148        3.6446753203
C               33.3871057655       28.6328110079        3.6665738019
C               31.7432634551       32.6351051401        3.6482580463
C               30.0063948691       36.5721238294        3.6213377656
C               27.9046894787       40.2773223029        3.7901580564
C               30.6844721608       25.4314292656        3.6565559656
C               27.9298536147       28.6068037354        3.6576910507
C               23.9217193602       30.1243498159        3.6463666821
C               19.7008914881       29.2924803398        3.6490179102
C               16.9635847568       26.0179353476        3.6409702085
C               17.0697580885       21.7358779318        3.6431645540
C               19.6599166475       18.2887652793        3.6505408042
C               23.5627395790       16.4125378850        3.6538505685
C               27.8905253501       16.3034183574        3.6490498862
C               31.8343927084       18.0722118131        3.6373359767
C               34.3037314357       21.5880752111        3.6290177074
C               34.3222395234       25.8913845193        3.6524425989
C               32.8444844413       29.9566912603        3.6647398615
C               31.1971955955       33.9603579097        3.6331510235
C               29.3031739294       37.7935153111        3.6872696347
C               27.2197863403       41.3993898364        4.3765736384
C               30.8549550615       21.7690476843        3.6385171019
C               30.1703371797       25.9003073639        4.8879979677
C               27.3196209053       29.0016052298        4.9110087063
C               23.1681773940       30.2113857458        4.8846663449
C               19.0321465088       28.9329005758        4.8847151981
C               16.7091985244       25.3026290103        4.8747639018
C               17.3220917482       21.0291767453        4.8810618287
C               20.2434499321       17.8161214627        4.8878659077
C               24.2947455197       16.2288551606        4.8895656290
C               28.6370004519       16.4397004761        4.8823049428
C               32.4360053942       18.5332697768        4.8694364413
C               34.5215965199       22.3025984141        4.8663314586
C               34.1309361363       26.6073436506        4.8946999835
C               32.5475593467       30.6525252869        4.8992324889
C               30.9156051425       34.6523275063        4.8652768242
C               28.9572250526       38.3406599264        4.9568823782
C               30.9043575169       22.9554800502        4.4820152046
C               29.4269865461       27.1097347105        4.9541414135
C               26.0482548956       29.6426063207        4.8819353037
C               21.7489210979       30.0901653936        4.8826246153
C               17.9925647402       27.9606746883        4.8804344149
C               16.5869769617       23.8858338983        4.8750775063
C               18.0800219977       19.8273905392        4.8832813718
C               21.4783668949       17.1160211981        4.8893518837
C               25.7071613937       16.0927953353        4.8883585474
C               29.9748683018       16.9128045484        4.8788554760
C               33.3663082920       19.6037705619        4.8659010017
C               34.6384232557       23.7137241697        4.8728542194
C               33.6582022151       27.9374004438        4.9042724050
C               32.0146965024       31.9578687899        4.8941732180
C               30.3456815611       35.9356036302        4.8738299940
C               28.3040741138       39.5591201034        4.9809632359
C               30.5781277090       23.6140219525        5.5946007227
C               28.7922269266       27.5378452586        6.2138050805
C               25.2407137715       29.9294172113        5.9802678984
C               20.8900769632       29.9039922126        5.9716383069
C               17.4545853485       27.2653993544        5.9702857657
C               16.6398450629       23.0228010587        5.9763718925
C               18.6218438858       19.1570973811        5.9867933778
C               22.2639188367       16.7636081373        5.9930883669
C               26.5688644799       16.0910501887        5.9905261624
C               30.7550305286       17.2855373823        5.9794836557
C               33.8289299874       20.3292124326        5.9686208681
C               34.5783811837       24.5545704760        5.9887518174
C               33.3338830004       28.7192651921        6.0204045202
C               31.6959001834       32.7385609485        6.0144179068
C               30.0551600109       36.5515706039        6.0897787715
C               27.8413175889       40.2876152129        6.1863118029
C               30.2518377076       24.9181007242        5.9770218796
C               27.8649918746       28.5479820408        6.1029111271
C               24.0229941085       30.1785151105        5.9885810039
C               19.7438338787       29.4248298303        5.9882922332
C               16.9167817881       26.1458394297        5.9746060691
C               16.9544899434       21.8199758800        5.9763996409
C               19.5335880837       18.3160480103        5.9866704297
C               23.4476180234       16.3922186967        5.9920730414
C               27.8030989229       16.2364442546        5.9866493260
C               31.7926130432       17.9663506139        5.9752129980
C               34.3152074659       21.4705110755        5.9726775887
C               34.3510699772       25.7741081374        5.9953139365
C               32.8587707082       29.8637339829        6.0114248595
C               31.2386702698       33.8906837561        5.9885620926
C               29.3134100409       37.6823543838        6.2461754647
C               27.1713216128       41.4245736423        5.6393716346
Al              26.9723629635       33.5968507666        7.9238835553
Cl              27.7223542006       33.8175119376        5.8817242669
Cl              27.1796334901       35.5052947343        8.9118131007
Cl              28.1145275002       32.0584120288        8.9203300929
Cl              24.8951729729       33.0045588068        7.8634819547



     Writing config-only to output data dir ./ns.save/ :
     XML data file
     NEW-OLD atomic charge density approx. for the potential

     Check: negative core charge=   -0.000001

     negative rho (up, down):  6.244E-02 0.000E+00

     total cpu time spent up to now is    84196.2 secs

     Self-consistent Calculation

     iteration #  1     ecut=    45.33 Ry     beta= 0.30
     Davidson diagonalization with overlap
     ethr =  1.00E-06,  avg # of iterations =  7.0

     negative rho (up, down):  6.261E-02 0.000E+00

     total cpu time spent up to now is    84427.4 secs

     total energy              =   -3886.23670008 Ry
     estimated scf accuracy    <       0.01251609 Ry

     iteration #  2     ecut=    45.33 Ry     beta= 0.30
     Davidson diagonalization with overlap
     ethr =  1.57E-06,  avg # of iterations =  3.0

     negative rho (up, down):  6.185E-02 0.000E+00

     total cpu time spent up to now is    84561.1 secs

     total energy              =   -3886.23527934 Ry
     estimated scf accuracy    <       0.10842302 Ry

     iteration #  3     ecut=    45.33 Ry     beta= 0.30
     Davidson diagonalization with overlap
     ethr =  1.57E-06,  avg # of iterations =  3.0

     negative rho (up, down):  6.211E-02 0.000E+00

     total cpu time spent up to now is    84694.2 secs

     total energy              =   -3886.23773940 Ry
     estimated scf accuracy    <       0.01423338 Ry

     iteration #  4     ecut=    45.33 Ry     beta= 0.30
     Davidson diagonalization with overlap
     ethr =  1.57E-06,  avg # of iterations =  1.0

     negative rho (up, down):  6.200E-02 0.000E+00

     total cpu time spent up to now is    84818.8 secs

     total energy              =   -3886.23775993 Ry
     estimated scf accuracy    <       0.01178688 Ry

     iteration #  5     ecut=    45.33 Ry     beta= 0.30
     Davidson diagonalization with overlap
     ethr =  1.48E-06,  avg # of iterations =  1.0

     negative rho (up, down):  6.204E-02 0.000E+00

     total cpu time spent up to now is    84943.5 secs

     total energy              =   -3886.23786460 Ry
     estimated scf accuracy    <       0.00168738 Ry

     iteration #  6     ecut=    45.33 Ry     beta= 0.30
     Davidson diagonalization with overlap

     Maximum CPU time exceeded

     max_seconds     =   85000.00
     elapsed seconds =   85024.41
     Calculation stopped in k-point loop, point #     1
     Calculation stopped in scf loop at iteration #     5

     Writing config to output data dir ./ns.save/ :

===================================================================================
=   BAD TERMINATION OF ONE OF YOUR APPLICATION PROCESSES
=   RANK 0 PID 1986416 RUNNING AT cn003
=   KILLED BY SIGNAL: 9 (Killed)
===================================================================================

===================================================================================
=   BAD TERMINATION OF ONE OF YOUR APPLICATION PROCESSES
=   RANK 1 PID 1986417 RUNNING AT cn003
=   KILLED BY SIGNAL: 9 (Killed)
===================================================================================

===================================================================================
=   BAD TERMINATION OF ONE OF YOUR APPLICATION PROCESSES
=   RANK 2 PID 1986418 RUNNING AT cn003
=   KILLED BY SIGNAL: 9 (Killed)
===================================================================================

===================================================================================
=   BAD TERMINATION OF ONE OF YOUR APPLICATION PROCESSES
=   RANK 3 PID 1986419 RUNNING AT cn003
=   KILLED BY SIGNAL: 9 (Killed)
===================================================================================

===================================================================================
=   BAD TERMINATION OF ONE OF YOUR APPLICATION PROCESSES
=   RANK 4 PID 1986420 RUNNING AT cn003
=   KILLED BY SIGNAL: 9 (Killed)
===================================================================================

===================================================================================
=   BAD TERMINATION OF ONE OF YOUR APPLICATION PROCESSES
=   RANK 5 PID 1986421 RUNNING AT cn003
=   KILLED BY SIGNAL: 9 (Killed)
===================================================================================

===================================================================================
=   BAD TERMINATION OF ONE OF YOUR APPLICATION PROCESSES
=   RANK 6 PID 1986422 RUNNING AT cn003
=   KILLED BY SIGNAL: 9 (Killed)
=========================================================================