4
	Energy:       4.7174223
Cl         4.78068        1.35544        0.00000
Cl         0.95132        1.35544        0.00000
Cl         2.86600       -1.96088        0.00000
Al         2.86600        0.25000        0.00000
