19
Lattice="7.380000070418783 0.0 0.0 -3.6900000352093913 6.3912645609844265 0.0 0.0 0.0 14.999997743127583" Properties=species:S:1:pos:R:3:forces:R:3 energy=-4530.321086472994 free_energy=-4530.321086472994 stress="-0.012453889892565363 -0.0 -0.0 -0.0 -0.012453889892565363 0.0 -0.0 0.0 -0.0025561508007152737" pbc="T T T"
C        0.00000000       0.00000000       7.49489560       0.00000000      -0.00000000       1.82171246
C        1.23000026       0.71014051       7.49489560       2.62152275       1.51353670      -1.23844306
C       -1.23000026       2.13042226       7.49489560      -0.09623408      -0.44169367      -0.01669520
C        0.00000000       2.84056350       7.49489560       0.00000000       0.22261742      -0.00180800
C       -2.45999978       4.26084525       7.49489560      -0.43063484       0.13750568      -0.01669520
C       -1.23000026       4.97098576       7.49489560       0.19279237      -0.11130871      -0.00180800
C        2.45999978       0.00000000       7.49489560      -0.33440102       0.30418799      -0.01669520
C        3.69000004       0.71014051       7.49489560       0.00000000       0.19179093       0.06176047
C        1.23000026       2.13042226       7.49489560       0.09623408      -0.44169367      -0.01669520
C        2.45999978       2.84056350       7.49489560       0.16609584      -0.09589546       0.06176047
C        0.00000000       4.26084525       7.49489560       0.00000000      -0.00000000       0.00978305
C        1.23000026       4.97098576       7.49489560      -0.19279237      -0.11130871      -0.00180800
C        4.92000029       0.00000000       7.49489560       0.33440102       0.30418799      -0.01669520
C        6.14999981       0.71014051       7.49489560      -2.62152275       1.51353670      -1.23844306
C        3.69000004       2.13042226       7.49489560       0.00000000       0.00000000      -0.00428320
C        4.92000029       2.84056350       7.49489560      -0.16609584      -0.09589546       0.06176047
C        2.45999978       4.26084525       7.49489560       0.43063484       0.13750568      -0.01669520
C        3.69000004       4.97098576       7.49489560       0.00000000      -3.02707365      -1.23844306
H        0.00000000       0.00000000       8.59489494       0.00000000       0.00000000       1.80843143
19
Lattice="7.380000070418783 0.0 0.0 -3.6900000352093913 6.3912645609844265 0.0 0.0 0.0 14.999997743127583" Properties=species:S:1:pos:R:3:forces:R:3 energy=-4530.6207810900505 free_energy=-4530.6207810900505 stress="-0.013675957678395832 -0.0 -0.0 -0.0 -0.013675957678395832 0.0 -0.0 0.0 -0.0020456551666643784" pbc="T T T"
C        0.00000000       0.00000000       7.53238914       0.00000000      -0.00000000       1.37836918
C        1.28395544       0.74129202       7.46940588      -1.38229422      -0.79806785      -0.70599073
C       -1.23198066       2.12133168       7.49455155      -0.55451059       1.30101882      -0.14286618
C        0.00000000       2.84514517       7.49485796      -0.00000000      -0.61098590       0.02346877
C       -2.46886321       4.26367509       7.49455155       0.84946009      -1.13072952      -0.14286618
C       -1.22603200       4.96869489       7.49485796      -0.52912917       0.30549282       0.02346877
C        2.45311745       0.00626071       7.49455155       1.40397068      -0.17028930      -0.14286618
C        3.69000000       0.71408822       7.49616630      -0.00000000      -0.19945821       0.03464844
C        1.23198066       2.12133168       7.49455155       0.55451059       1.30101882      -0.14286618
C        2.46341854       2.83858963       7.49616630      -0.17273597       0.09972898       0.03464844
C        0.00000000       4.26084499       7.49509652       0.00000000      -0.00000000       0.07558272
C        1.22603200       4.96869489       7.49485796       0.52912917       0.30549282       0.02346877
C        4.92688255       0.00626071       7.49455155      -1.40397068      -0.17028930      -0.14286618
C        6.09604456       0.74129202       7.46940588       1.38229422      -0.79806785      -0.70599073
C        3.69000000       2.13042249       7.49480701       0.00000000       0.00000000       0.00084564
C        4.91658146       2.83858963       7.49616630       0.17273597       0.09972898       0.03464844
C        2.46886321       4.26367509       7.49455155      -0.84946009      -1.13072952      -0.14286618
C        3.69000000       4.90868344       7.46940588       0.00000000       1.59613596      -0.70599073
H        0.00000000       0.00000000       8.63211579       0.00000000       0.00000000       1.34602084
19
Lattice="7.380000070418783 0.0 0.0 -3.6900000352093913 6.3912645609844265 0.0 0.0 0.0 14.999997743127583" Properties=species:S:1:pos:R:3:forces:R:3 energy=-4530.812798900582 free_energy=-4530.812798900582 stress="-0.01275780006319638 -0.0 -0.0 -0.0 -0.01275780006319638 0.0 -0.0 0.0 -0.0018996681058476657" pbc="T T T"
C        0.00000000       0.00000000       7.56858024       0.00000000      -0.00000000       0.69742896
C        1.28117496       0.73968671       7.44856842      -0.59558602      -0.34386165      -0.23037033
C       -1.24174387       2.13920988       7.49209714       0.16536333      -0.35401442      -0.23852715
C        0.00000000       2.83686362       7.49522686       0.00000000       0.34990400       0.03792583
C       -2.45826183       4.24628080       7.49209714      -0.22390375       0.32021624      -0.23852715
C       -1.23320404       4.97283567       7.49522686       0.30302585      -0.17495200       0.03792583
C        2.47348204       0.00577680       7.49209714      -0.38926708       0.03379818      -0.23852715
C        3.69000000       0.71228209       7.49719635       0.00000000       0.26391474      -0.02372948
C        1.24174387       2.13920988       7.49209714      -0.16536333      -0.35401442      -0.23852715
C        2.46185438       2.83949270       7.49719635       0.22855693      -0.13195750      -0.02372948
C        0.00000000       4.26084499       7.49640218       0.00000000      -0.00000000       0.12791547
C        1.23320404       4.97283567       7.49522686      -0.30302585      -0.17495200       0.03792583
C        4.90651796       0.00577680       7.49209714       0.38926708       0.03379818      -0.23852715
C        6.09882504       0.73968671       7.44856842       0.59558602      -0.34386165      -0.23037033
C        3.69000000       2.13042249       7.49478853       0.00000000      -0.00000000       0.01971599
C        4.91814562       2.83949270       7.49719635      -0.22855693      -0.13195750      -0.02372948
C        2.45826183       4.24628080       7.49209714       0.22390375       0.32021624      -0.23852715
C        3.69000000       4.91189406       7.44856842       0.00000000       0.68772356      -0.23037033
H        0.00000000       0.00000000       8.66767957       0.00000000      -0.00000000       1.23462394
19
Lattice="7.380000070418783 0.0 0.0 -3.6900000352093913 6.3912645609844265 0.0 0.0 0.0 14.999997743127583" Properties=species:S:1:pos:R:3:forces:R:3 energy=-4530.912897336701 free_energy=-4530.912897336701 stress="-0.011932376367132074 -0.0 -0.0 -0.0 -0.011932376367132074 -0.0 -0.0 -0.0 -0.0012092135792176777" pbc="T T T"
C        0.00000000       0.00000000       7.59975321       0.00000000       0.00000000       0.57893736
C        1.26925757       0.73280620       7.43434997      -0.02226241      -0.01285320       0.06829030
C       -1.24161864       2.13715110       7.48570549       0.20004931      -0.35138007      -0.24081518
C        0.00000000       2.84210502       7.49623061       0.00000000      -0.02740822       0.00425209
C       -2.45998218       4.24741864       7.48570549      -0.20427929       0.34893804      -0.24081518
C       -1.22866485       4.97021497       7.49623061      -0.02373617       0.01370398       0.00425209
C        2.47163646       0.00669774       7.48570549      -0.40432885       0.00244203      -0.24081518
C        3.69000000       0.71788414       7.49709348       0.00000000      -0.11571764      -0.11109762
C        1.24161864       2.13715110       7.48570549      -0.20004931      -0.35138007      -0.24081518
C        2.46670590       2.83669167       7.49709348      -0.10021440       0.05785882      -0.11109762
C        0.00000000       4.26084499       7.49982685       0.00000000       0.00000000       0.15608087
C        1.22866485       4.97021497       7.49623061       0.02373617       0.01370398       0.00425209
C        4.90836354       0.00669774       7.48570549       0.40432885       0.00244203      -0.24081518
C        6.11074243       0.73280620       7.43434997       0.02226241      -0.01285320       0.06829030
C        3.69000000       2.13042249       7.49522992       0.00000000       0.00000000       0.02131445
C        4.91329410       2.83669167       7.49709348       0.10021440       0.05785882      -0.11109762
C        2.45998218       4.24741864       7.48570549       0.20427929       0.34893804      -0.24081518
C        3.69000000       4.92565508       7.43434997       0.00000000       0.02570640       0.06829030
H        0.00000000       0.00000000       8.71094313       0.00000000       0.00000000       0.80422513
19
Lattice="7.380000070418783 0.0 0.0 -3.6900000352093913 6.3912645609844265 0.0 0.0 0.0 14.999997743127583" Properties=species:S:1:pos:R:3:forces:R:3 energy=-4530.9935558241295 free_energy=-4530.9935558241295 stress="-0.010875576952037506 -0.0 -0.0 -0.0 -0.010875576952037506 -0.0 -0.0 -0.0 -0.0002451480832582536" pbc="T T T"
C        0.00000000       0.00000000       7.65396239       0.00000000      -0.00000000       0.35202876
C        1.25991110       0.72741001       7.42040520       0.20217021       0.11672294       0.38487872
C       -1.23839580       2.13108740       7.47209747       0.05408084      -0.12226393      -0.17091665
C        0.00000000       2.83993997       7.49708803      -0.00000000       0.03530048      -0.04751064
C       -2.46362207       4.25324156       7.47209747      -0.07884314       0.10796731      -0.17091665
C       -1.23053984       4.97129749       7.49708803       0.03057119      -0.01765037      -0.04751064
C        2.46477372       0.00693852       7.47209747      -0.13292423       0.01429662      -0.17091665
C        3.69000000       0.71553334       7.49327239       0.00000000      -0.04915126      -0.24209970
C        1.23839580       2.13108740       7.47209747      -0.05408084      -0.12226393      -0.17091665
C        2.46467005       2.83786707       7.49327239      -0.04256641       0.02457563      -0.24209970
C        0.00000000       4.26084499       7.50813991       0.00000000      -0.00000000       0.12788847
C        1.23053984       4.97129749       7.49708803      -0.03057119      -0.01765037      -0.04751064
C        4.91522628       0.00693852       7.47209747       0.13292423       0.01429662      -0.17091665
C        6.12008890       0.72741001       7.42040520      -0.20217021       0.11672294       0.38487872
C        3.69000000       2.13042249       7.49626337       0.00000000       0.00000000      -0.02437406
C        4.91532995       2.83786707       7.49327239       0.04256641       0.02457563      -0.24209970
C        2.46362207       4.25324156       7.47209747       0.07884314       0.10796731      -0.17091665
C        3.69000000       4.93644745       7.42040520       0.00000000      -0.23344614       0.38487872
H        0.00000000       0.00000000       8.77976083       0.00000000      -0.00000000       0.28415112
19
Lattice="7.380000070418783 0.0 0.0 -3.6900000352093913 6.3912645609844265 0.0 0.0 0.0 14.999997743127583" Properties=species:S:1:pos:R:3:forces:R:3 energy=-4531.029568321935 free_energy=-4531.029568321935 stress="-0.010305401072998646 -0.0 -0.0 -0.0 -0.010305401072998646 0.0 -0.0 0.0 0.00013129653897352159" pbc="T T T"
C        0.00000000       0.00000000       7.69159364       0.00000000      -0.00000000       0.23537190
C        1.25741300       0.72596774       7.42243816       0.14708947       0.08492225       0.42394509
C       -1.23703921       2.12797469       7.46105736       0.00118939       0.05447268      -0.07232487
C        0.00000000       2.84030552       7.49623355      -0.00000000      -0.04067151      -0.07300107
C       -2.46563946       4.25597276       7.46105736       0.04776930      -0.02620623      -0.07232487
C       -1.23022327       4.97111472       7.49623355      -0.03522257       0.02033588      -0.07300107
C        2.46139975       0.00732003       7.46105736       0.04657990      -0.02826645      -0.07232487
C        3.69000000       0.71433554       7.48500100       0.00000000      -0.00258679      -0.28360965
C        1.23703921       2.12797469       7.46105736      -0.00118939       0.05447268      -0.07232487
C        2.46363273       2.83846597       7.48500100      -0.00224020       0.00129352      -0.28360965
C        0.00000000       4.26084499       7.51543667       0.00000000      -0.00000000       0.03119391
C        1.23022327       4.97111472       7.49623355       0.03522257       0.02033588      -0.07300107
C        4.91860025       0.00732003       7.46105736      -0.04657990      -0.02826645      -0.07232487
C        6.12258700       0.72596774       7.42243816      -0.14708947       0.08492225       0.42394509
C        3.69000000       2.13042249       7.49595892       0.00000000       0.00000000      -0.12383358
C        4.91636727       2.83846597       7.48500100       0.00224020       0.00129352      -0.28360965
C        2.46563946       4.25597276       7.46105736      -0.04776930      -0.02620623      -0.07232487
C        3.69000000       4.93933201       7.42243816       0.00000000      -0.16984425       0.42394509
H        0.00000000       0.00000000       8.82265665       0.00000000       0.00000000       0.08921368
19
Lattice="7.380000070418783 0.0 0.0 -3.6900000352093913 6.3912645609844265 0.0 0.0 0.0 14.999997743127583" Properties=species:S:1:pos:R:3:forces:R:3 energy=-4531.066521653338 free_energy=-4531.066521653338 stress="-0.009664527057589429 0.0 -0.0 0.0 -0.009664527057589429 -0.0 -0.0 -0.0 0.0003709356765405785" pbc="T T T"
C        0.00000000       0.00000000       7.73596844       0.00000000       0.00000000       0.12631598
C        1.25606131       0.72518733       7.43466626       0.05866306       0.03386914       0.35630245
C       -1.23536007       2.12642248       7.44842685      -0.09508994       0.11689701       0.05047358
C        0.00000000       2.83991251       7.49345512       0.00000000      -0.00523579      -0.07936867
C       -2.46614415       4.25820304       7.44842685       0.05369080      -0.14079875       0.05047358
C       -1.23056362       4.97131122       7.49345512      -0.00453440       0.00261790      -0.07936867
C        2.45921592       0.00664197       7.44842685       0.14878074       0.02390175       0.05047358
C        3.69000000       0.71426796       7.46924334       0.00000000      -0.04673983      -0.27277476
C        1.23536007       2.12642248       7.44842685       0.09508994       0.11689701       0.05047358
C        2.46357420       2.83849976       7.46924334      -0.04047791       0.02337004      -0.27277476
C        0.00000000       4.26084499       7.52292484       0.00000000       0.00000000      -0.12720790
C        1.23056362       4.97131122       7.49345512       0.00453440       0.00261790      -0.07936867
C        4.92078408       0.00664197       7.44842685      -0.14878074       0.02390175       0.05047358
C        6.12393869       0.72518733       7.43466626      -0.05866306       0.03386914       0.35630245
C        3.69000000       2.13042249       7.49161765       0.00000000       0.00000000      -0.28113445
C        4.91642580       2.83849976       7.46924334       0.04047791       0.02337004      -0.27277476
C        2.46614415       4.25820304       7.44842685      -0.05369080      -0.14079875       0.05047358
C        3.69000000       4.94089281       7.43466626       0.00000000      -0.06773828       0.35630245
H        0.00000000       0.00000000       8.86984204       0.00000000       0.00000000      -0.03329193
19
Lattice="7.380000070418783 0.0 0.0 -3.6900000352093913 6.3912645609844265 0.0 0.0 0.0 14.999997743127583" Properties=species:S:1:pos:R:3:forces:R:3 energy=-4531.102331698448 free_energy=-4531.102331698448 stress="-0.008930919123045066 -0.0 -0.0 -0.0 -0.008930919123045066 0.0 -0.0 0.0 0.00045448801952372857" pbc="T T T"
C        0.00000000       0.00000000       7.78806631       0.00000000       0.00000000       0.05214146
C        1.25548926       0.72485706       7.45993904       0.01207673       0.00697257       0.16573665
C       -1.23592618       2.12549279       7.43600700       0.03376887       0.14912784       0.17645224
C        0.00000000       2.84139127       7.48800574       0.00000000      -0.11856822      -0.06584929
C       -2.46723234       4.25817762       7.43600700       0.14603300      -0.04531904       0.17645224
C       -1.22928298       4.97057185       7.48800574      -0.10268292       0.05928398      -0.06584929
C        2.45869384       0.00759707       7.43600700       0.11226388      -0.10380855       0.17645224
C        3.69000000       0.71234351       7.44324985       0.00000000       0.13707657      -0.18478416
C        1.23592618       2.12549279       7.43600700      -0.03376887       0.14912784       0.17645224
C        2.46190757       2.83946199       7.44324985       0.11871195      -0.06853841      -0.18478416
C        0.00000000       4.26084499       7.52669340       0.00000000       0.00000000      -0.31942460
C        1.22928298       4.97057185       7.48800574       0.10268292       0.05928398      -0.06584929
C        4.92130616       0.00759707       7.43600700      -0.11226388      -0.10380855       0.17645224
C        6.12451074       0.72485706       7.45993904      -0.01207673       0.00697257       0.16573665
C        3.69000000       2.13042249       7.47719094       0.00000000       0.00000000      -0.46861903
C        4.91809243       2.83946199       7.44324985      -0.11871195      -0.06853841      -0.18478416
C        2.46723234       4.25817762       7.43600700      -0.14603300      -0.04531904       0.17645224
C        3.69000000       4.94155336       7.45993904       0.00000000      -0.01394515       0.16573665
H        0.00000000       0.00000000       8.92143170       0.00000000      -0.00000000      -0.06812086
19
Lattice="7.380000070418783 0.0 0.0 -3.6900000352093913 6.3912645609844265 0.0 0.0 0.0 14.999997743127583" Properties=species:S:1:pos:R:3:forces:R:3 energy=-4531.126460440692 free_energy=-4531.126460440692 stress="-0.008462658739293345 -0.0 -0.0 -0.0 -0.008462658739293345 -0.0 -0.0 -0.0 0.0003167643772438108" pbc="T T T"
C        0.00000000       0.00000000       7.82197009       0.00000000       0.00000000      -0.00158251
C        1.25687036       0.72565444       7.48413462      -0.05842498      -0.03373185      -0.00092328
C       -1.23384676       2.12689892       7.43220166      -0.17409737      -0.00545048       0.20211416
C        0.00000000       2.83970374       7.48247362      -0.00000000       0.10547539      -0.01964349
C       -2.46497489       4.25927538       7.43220166      -0.09176884      -0.14804746       0.20211416
C       -1.23074443       4.97141561       7.48247362       0.09134435      -0.05273770      -0.01964349
C        2.45887187       0.00509318       7.43220166       0.08232852       0.15349794       0.20211416
C        3.69000000       0.71531997       7.42033229      -0.00000000      -0.15325652      -0.07750462
C        1.23384676       2.12689892       7.43220166       0.17409737      -0.00545048       0.20211416
C        2.46448526       2.83797376       7.42033229      -0.13272394       0.07662813      -0.07750462
C        0.00000000       4.26084499       7.52077966       0.00000000       0.00000000      -0.40532361
C        1.23074443       4.97141561       7.48247362      -0.09134435      -0.05273770      -0.01964349
C        4.92112813       0.00509318       7.43220166      -0.08232852       0.15349794       0.20211416
C        6.12312964       0.72565444       7.48413462       0.05842498      -0.03373185      -0.00092328
C        3.69000000       2.13042249       7.45480004       0.00000000      -0.00000000      -0.51899877
C        4.91551474       2.83797376       7.42033229       0.13272394       0.07662813      -0.07750462
C        2.46497489       4.25927538       7.43220166       0.09176884      -0.14804746       0.20211416
C        3.69000000       4.93995859       7.48413462       0.00000000       0.06746343      -0.00092328
H        0.00000000       0.00000000       8.95142691       0.00000000       0.00000000       0.00743357
19
Lattice="7.380000070418783 0.0 0.0 -3.6900000352093913 6.3912645609844265 0.0 0.0 0.0 14.999997743127583" Properties=species:S:1:pos:R:3:forces:R:3 energy=-4531.150289313487 free_energy=-4531.150289313487 stress="-0.0082046564494223 -0.0 -0.0 -0.0 -0.0082046564494223 -0.0 -0.0 -0.0 0.00010007918005674023" pbc="T T T"
C        0.00000000       0.00000000       7.84691173       0.00000000       0.00000000      -0.00385948
C        1.25854317       0.72662024       7.50777534      -0.06835046      -0.03946232      -0.14139962
C       -1.23640148       2.12712848       7.43497781       0.04888078      -0.01148255       0.15974418
C        0.00000000       2.84139833       7.47700469       0.00000000      -0.04301944       0.02287408
C       -2.46605344       4.25694814       7.43497781       0.01449614       0.04807320       0.15974418
C       -1.22927686       4.97056832       7.47700469      -0.03725606       0.02150985       0.02287408
C        2.46034804       0.00719085       7.43497781      -0.03438439      -0.03659065       0.15974418
C        3.69000000       0.71345885       7.39812896      -0.00000000       0.06523506       0.02862949
C        1.23640148       2.12712848       7.43497781      -0.04888078      -0.01148255       0.15974418
C        2.46287349       2.83890431       7.39812896       0.05649511      -0.03261753       0.02862949
C        0.00000000       4.26084499       7.50432616       0.00000000       0.00000000      -0.36097337
C        1.22927686       4.97056832       7.47700469       0.03725606       0.02150985       0.02287408
C        4.91965196       0.00719085       7.43497781       0.03438439      -0.03659065       0.15974418
C        6.12145683       0.72662024       7.50777534       0.06835046      -0.03946232      -0.14139962
C        3.69000000       2.13042249       7.42120561       0.00000000      -0.00000000      -0.43188414
C        4.91712651       2.83890431       7.39812896      -0.05649511      -0.03261753       0.02862949
C        2.46605344       4.25694814       7.43497781      -0.01449614       0.04807320       0.15974418
C        3.69000000       4.93802701       7.50777534       0.00000000       0.07892438      -0.14139962
H        0.00000000       0.00000000       8.97197085       0.00000000       0.00000000       0.10793980
19
Lattice="7.380000070418783 0.0 0.0 -3.6900000352093913 6.3912645609844265 0.0 0.0 0.0 14.999997743127583" Properties=species:S:1:pos:R:3:forces:R:3 energy=-4531.165908239655 free_energy=-4531.165908239655 stress="-0.008144058046819136 -0.0 -0.0 -0.0 -0.008144058046819136 0.0 -0.0 0.0 3.9480777453576426e-05" pbc="T T T"
C        0.00000000       0.00000000       7.85464003       0.00000000      -0.00000000       0.00684428
C        1.25926265       0.72703563       7.51634665      -0.08711335      -0.05029489      -0.11284700
C       -1.23654742       2.12753342       7.44257663       0.01283520      -0.04115153       0.05019462
C        0.00000000       2.84060789       7.47483600      -0.00000000       0.02747404       0.04357737
C       -2.46577572       4.25661929       7.44257663      -0.02922059       0.03169142       0.05019462
C       -1.22996141       4.97096354       7.47483600       0.02379325      -0.01373715       0.04357737
C        2.46077170       0.00711477       7.44257663      -0.04205605       0.00946012       0.05019462
C        3.69000000       0.71428545       7.38823749       0.00000000      -0.01386339       0.05538285
C        1.23654742       2.12753342       7.44257663      -0.01283520      -0.04115153       0.05019462
C        2.46358934       2.83849102       7.38823749      -0.01200628       0.00693169       0.05538285
C        0.00000000       4.26084499       7.48433161       0.00000000      -0.00000000      -0.17938690
C        1.22996141       4.97096354       7.47483600      -0.02379325      -0.01373715       0.04357737
C        4.91922830       0.00711477       7.44257663       0.04205605       0.00946012       0.05019462
C        6.12073735       0.72703563       7.51634665       0.08711335      -0.05029489      -0.11284700
C        3.69000000       2.13042249       7.39116538       0.00000000       0.00000000      -0.20555867
C        4.91641066       2.83849102       7.38823749       0.01200628       0.00693169       0.05538285
C        2.46577572       4.25661929       7.44257663       0.02922059       0.03169142       0.05019462
C        3.69000000       4.93719622       7.51634665       0.00000000       0.10058978      -0.11284700
H        0.00000000       0.00000000       8.97915096       0.00000000       0.00000000       0.11859445
19
Lattice="7.380000070418783 0.0 0.0 -3.6900000352093913 6.3912645609844265 0.0 0.0 0.0 14.999997743127583" Properties=species:S:1:pos:R:3:forces:R:3 energy=-4531.170583699631 free_energy=-4531.170583699631 stress="-0.007991643882696027 -0.0 -0.0 -0.0 -0.007991643882696027 -0.0 -0.0 -0.0 0.000180877050194292" pbc="T T T"
C        0.00000000       0.00000000       7.85940250       0.00000000      -0.00000000       0.01113056
C        1.25760772       0.72608016       7.51553264      -0.02954969      -0.01706056      -0.03270726
C       -1.23651593       2.12698048       7.44617623       0.02437329      -0.02097609      -0.00535021
C        0.00000000       2.84072906       7.47526795      -0.00000000       0.01176100       0.02625585
C       -2.46623883       4.25692303       7.44617623      -0.00597936       0.03159603      -0.00535021
C       -1.22985647       4.97090295       7.47526795       0.01018543      -0.00588037       0.02625585
C        2.46027710       0.00736397       7.44617623      -0.03035239      -0.01061968      -0.00535021
C        3.69000000       0.71392817       7.38626261       0.00000000       0.00813214       0.02198885
C        1.23651593       2.12698048       7.44617623      -0.02437329      -0.02097609      -0.00535021
C        2.46327993       2.83866965       7.38626261       0.00704277      -0.00406620       0.02198885
C        0.00000000       4.26084499       7.47306718       0.00000000      -0.00000000      -0.02809907
C        1.22985647       4.97090295       7.47526795      -0.01018543      -0.00588037       0.02625585
C        4.91972290       0.00736397       7.44617623       0.03035239      -0.01061968      -0.00535021
C        6.12239228       0.72608016       7.51553264       0.02954969      -0.01706056      -0.03270726
C        3.69000000       2.13042249       7.37566311       0.00000000      -0.00000000      -0.03751831
C        4.91672007       2.83866965       7.38626261      -0.00704277      -0.00406620       0.02198885
C        2.46623883       4.25692303       7.44617623       0.00597936       0.03159603      -0.00535021
C        3.69000000       4.93910717       7.51553264       0.00000000       0.03412085      -0.03270726
H        0.00000000       0.00000000       8.98662841       0.00000000      -0.00000000       0.03997654
19
Lattice="7.380000070418783 0.0 0.0 -3.6900000352093913 6.3912645609844265 0.0 0.0 0.0 14.999997743127583" Properties=species:S:1:pos:R:3:forces:R:3 energy=-4531.171013911609 free_energy=-4531.171013911609 stress="-0.007897991805945683 -0.0 -0.0 -0.0 -0.007897991805945683 -0.0 -0.0 -0.0 0.00025616597464064704" pbc="T T T"
C        0.00000000       0.00000000       7.86168146       0.00000000      -0.00000000       0.00134700
C        1.25659555       0.72549578       7.51402369      -0.00199003      -0.00114903      -0.00469792
C       -1.23608498       2.12658949       7.44596126       0.00524351      -0.00789611      -0.00552581
C        0.00000000       2.84085341       7.47597038       0.00000000       0.00384303       0.01138844
C       -2.46636197       4.25749174       7.44596126      -0.00421635       0.00848901      -0.00552581
C       -1.22974878       4.97084078       7.47597038       0.00332829      -0.00192164       0.01138844
C        2.45972301       0.00718625       7.44596126      -0.00945986      -0.00059290      -0.00552581
C        3.69000000       0.71390082       7.38662774      -0.00000000      -0.00110532       0.00178846
C        1.23608498       2.12658949       7.44596126      -0.00524351      -0.00789611      -0.00552581
C        2.46325625       2.83868333       7.38662774      -0.00095722       0.00055253       0.00178846
C        0.00000000       4.26084499       7.47184740       0.00000000      -0.00000000       0.00619816
C        1.22974878       4.97084078       7.47597038      -0.00332829      -0.00192164       0.01138844
C        4.92027699       0.00718625       7.44596126       0.00945986      -0.00059290      -0.00552581
C        6.12340445       0.72549578       7.51402369       0.00199003      -0.00114903      -0.00469792
C        3.69000000       2.13042249       7.37378174       0.00000000       0.00000000      -0.00583846
C        4.91674375       2.83868333       7.38662774       0.00095722       0.00055253       0.00178846
C        2.46636197       4.25749174       7.44596126       0.00421635       0.00848901      -0.00552581