
     Program PWSCF v.7.2 starts on 24Jan2025 at 12:28:47 

     This program is part of the open-source Quantum ESPRESSO suite
     for quantum simulation of materials; please cite
         "P. Giannozzi et al., J. Phys.:Condens. Matter 21 395502 (2009);
         "P. Giannozzi et al., J. Phys.:Condens. Matter 29 465901 (2017);
         "P. Giannozzi et al., J. Chem. Phys. 152 154105 (2020);
          URL http://www.quantum-espresso.org", 
     in publications or presentations arising from this work. More details at
     http://www.quantum-espresso.org/quote

     Parallel version (MPI), running on    20 processors

     MPI processes distributed on     1 nodes
     194018 MiB available memory on the printing compute node when the environment starts

     Reading input from pw.in
Warning: card &CELL ignored
Warning: card / ignored
Warning: card &FCP ignored
Warning: card / ignored
Warning: card &RISM ignored
Warning: card / ignored

     Current dimensions of program PWSCF are:
     Max number of different atomic species (ntypx) = 10
     Max number of k-points (npk) =  40000
     Max angular momentum in pseudopotentials (lmaxx) =  4
     file C.pbe-n-kjpaw_psl.1.0.0.UPF: wavefunction(s)  2S 2P renormalized
     file H.pbe-kjpaw_psl.1.0.0.UPF: wavefunction(s)  1S renormalized
     Message from routine setup:
     using ibrav=0 with symmetry is DISCOURAGED, use correct ibrav instead

     R & G space division:  proc/nbgrp/npool/nimage =      20
     Subspace diagonalization in iterative solution of the eigenvalue problem:
     a serial algorithm will be used


     Parallelization info
     --------------------
     sticks:   dense  smooth     PW     G-vecs:    dense   smooth      PW
     Min         402     160     42                59248    14980    2090
     Max         403     161     43                59259    14995    2103
     Sum        8041    3217    859              1185017   299779   41959

     Using Slab Decomposition



     bravais-lattice index     =            0
     lattice parameter (alat)  =      13.9462  a.u.
     unit-cell volume          =    4774.5365 (a.u.)^3
     number of atoms/cell      =           19
     number of atomic types    =            2
     number of electrons       =        73.00
     number of Kohn-Sham states=           44
     kinetic-energy cutoff     =      60.0000  Ry
     charge density cutoff     =     600.0000  Ry
     scf convergence threshold =      1.0E-06
     mixing beta               =       0.7000
     number of iterations used =            8  plain     mixing
     energy convergence thresh.=      1.0E-04
     force convergence thresh. =      1.0E-03
     Exchange-correlation= SLA  PW   PBX  PBC
                           (   1   4   3   4   0   0   0)
     nstep                     =           50


     celldm(1)=  13.946179  celldm(2)=   0.000000  celldm(3)=   0.000000
     celldm(4)=   0.000000  celldm(5)=   0.000000  celldm(6)=   0.000000

     crystal axes: (cart. coord. in units of alat)
               a(1) = (   1.000000   0.000000   0.000000 )  
               a(2) = (  -0.500000   0.866025   0.000000 )  
               a(3) = (   0.000000   0.000000   2.032520 )  

     reciprocal axes: (cart. coord. in units 2 pi/alat)
               b(1) = (  1.000000  0.577350 -0.000000 )  
               b(2) = (  0.000000  1.154701  0.000000 )  
               b(3) = (  0.000000 -0.000000  0.492000 )  


     PseudoPot. # 1 for C  read from file:
     /home/ebarquero/practicas/p2/pseudo/C.pbe-n-kjpaw_psl.1.0.0.UPF
     MD5 check sum: 5f16ad9a65e90284d1d834d4ab3b0f7d
     Pseudo is Projector augmented-wave + core cor, Zval =  4.0
     Generated using &quot;atomic&quot; code by A. Dal Corso  v.6.3
     Shape of augmentation charge: PSQ
     Using radial grid of 1073 points,  4 beta functions with: 
                l(1) =   0
                l(2) =   0
                l(3) =   1
                l(4) =   1
     Q(r) pseudized with 0 coefficients 


     PseudoPot. # 2 for H  read from file:
     /home/ebarquero/practicas/p2/pseudo/H.pbe-kjpaw_psl.1.0.0.UPF
     MD5 check sum: d81a744832360e4a8af0b0b5b123bc2a
     Pseudo is Projector augmented-wave, Zval =  1.0
     Generated using &quot;atomic&quot; code by A. Dal Corso  v.6.3MaX
     Shape of augmentation charge: PSQ
     Using radial grid of  929 points,  2 beta functions with: 
                l(1) =   0
                l(2) =   0
     Q(r) pseudized with 0 coefficients 


     atomic species   valence    mass     pseudopotential
        C              4.00    12.01100     C ( 1.00)
        H              1.00     1.00800     H ( 1.00)

      6 Sym. Ops. (no inversion) found



   Cartesian axes

     site n.     atom                  positions (alat units)
         1           C   tau(   1) = (   0.0000000   0.0000000   0.0000000  )
         2           C   tau(   2) = (   0.1666667   0.0962250   0.0000000  )
         3           C   tau(   3) = (  -0.1666667   0.2886751   0.0000000  )
         4           C   tau(   4) = (   0.0000000   0.3849002   0.0000000  )
         5           C   tau(   5) = (  -0.3333333   0.5773503   0.0000000  )
         6           C   tau(   6) = (  -0.1666667   0.6735753   0.0000000  )
         7           C   tau(   7) = (   0.3333333   0.0000000   0.0000000  )
         8           C   tau(   8) = (   0.5000000   0.0962250   0.0000000  )
         9           C   tau(   9) = (   0.1666667   0.2886751   0.0000000  )
        10           C   tau(  10) = (   0.3333333   0.3849002   0.0000000  )
        11           C   tau(  11) = (   0.0000000   0.5773503   0.0000000  )
        12           C   tau(  12) = (   0.1666667   0.6735753   0.0000000  )
        13           C   tau(  13) = (   0.6666667   0.0000000   0.0000000  )
        14           C   tau(  14) = (   0.8333333   0.0962250   0.0000000  )
        15           C   tau(  15) = (   0.5000000   0.2886751   0.0000000  )
        16           C   tau(  16) = (   0.6666667   0.3849002   0.0000000  )
        17           C   tau(  17) = (   0.3333333   0.5773503   0.0000000  )
        18           C   tau(  18) = (   0.5000000   0.6735753   0.0000000  )
        19           H   tau(  19) = (   0.0000000   0.0000000   0.1490515  )

     number of k points=     3  Methfessel-Paxton smearing, width (Ry)=  0.0200
                       cart. coord. in units 2pi/alat
        k(    1) = (   0.0000000   0.0000000   0.0000000), wk =   0.2222222
        k(    2) = (   0.0000000   0.3849002   0.0000000), wk =   1.3333333
        k(    3) = (   0.3333333   0.5773503   0.0000000), wk =   0.4444444

     Dense  grid:  1185017 G-vectors     FFT dimensions: ( 120, 120, 225)

     Smooth grid:   299779 G-vectors     FFT dimensions: (  72,  72, 144)

     Estimated max dynamical RAM per process >     134.65 MB

     Estimated total dynamical RAM >       2.63 GB

     Initial potential from superposition of free atoms

     starting charge      72.9992, renormalised to      73.0000

     negative rho (up, down):  3.981E-05 0.000E+00
     Starting wfcs are   73 randomized atomic wfcs
     Checking if some PAW data can be deallocated... 

     total cpu time spent up to now is        4.8 secs

     Self-consistent Calculation

     iteration #  1     ecut=    60.00 Ry     beta= 0.70
     Davidson diagonalization with overlap
     ethr =  1.00E-02,  avg # of iterations =  2.7

     negative rho (up, down):  3.633E-05 0.000E+00

     total cpu time spent up to now is        6.6 secs

     total energy              =    -332.71327862 Ry
     estimated scf accuracy    <       1.81473787 Ry

     iteration #  2     ecut=    60.00 Ry     beta= 0.70
     Davidson diagonalization with overlap
     ethr =  2.49E-03,  avg # of iterations =  4.3

     negative rho (up, down):  4.447E-05 0.000E+00

     total cpu time spent up to now is        8.3 secs

     total energy              =    -332.95646987 Ry
     estimated scf accuracy    <       0.05351271 Ry

     iteration #  3     ecut=    60.00 Ry     beta= 0.70
     Davidson diagonalization with overlap
     ethr =  7.33E-05,  avg # of iterations = 12.0

     negative rho (up, down):  5.511E-05 0.000E+00

     total cpu time spent up to now is       10.4 secs

     total energy              =    -332.96268347 Ry
     estimated scf accuracy    <       0.03271060 Ry

     iteration #  4     ecut=    60.00 Ry     beta= 0.70
     Davidson diagonalization with overlap
     ethr =  4.48E-05,  avg # of iterations =  4.0

     negative rho (up, down):  5.017E-05 0.000E+00

     total cpu time spent up to now is       12.1 secs

     total energy              =    -332.97130440 Ry
     estimated scf accuracy    <       0.00545906 Ry

     iteration #  5     ecut=    60.00 Ry     beta= 0.70
     Davidson diagonalization with overlap
     ethr =  7.48E-06,  avg # of iterations =  3.3

     negative rho (up, down):  5.096E-05 0.000E+00

     total cpu time spent up to now is       13.7 secs

     total energy              =    -332.97233913 Ry
     estimated scf accuracy    <       0.00043501 Ry

     iteration #  6     ecut=    60.00 Ry     beta= 0.70
     Davidson diagonalization with overlap
     ethr =  5.96E-07,  avg # of iterations =  3.7

     negative rho (up, down):  5.157E-05 0.000E+00

     total cpu time spent up to now is       15.3 secs

     total energy              =    -332.97245485 Ry
     estimated scf accuracy    <       0.00001976 Ry

     iteration #  7     ecut=    60.00 Ry     beta= 0.70
     Davidson diagonalization with overlap
     ethr =  2.71E-08,  avg # of iterations =  4.0

     negative rho (up, down):  5.173E-05 0.000E+00

     total cpu time spent up to now is       17.1 secs

     total energy              =    -332.97246138 Ry
     estimated scf accuracy    <       0.00000296 Ry

     iteration #  8     ecut=    60.00 Ry     beta= 0.70
     Davidson diagonalization with overlap
     ethr =  4.06E-09,  avg # of iterations =  2.3

     negative rho (up, down):  5.182E-05 0.000E+00

     total cpu time spent up to now is       18.6 secs

     End of self-consistent calculation

          k = 0.0000 0.0000 0.0000 ( 37425 PWs)   bands (ev):

   -21.3770 -19.3864 -18.5910 -18.5910 -18.4488 -18.4488 -18.4053 -14.6078
   -14.2141 -14.2141 -14.1227 -12.2273 -12.2273 -11.6411 -11.3056 -11.3056
   -11.1700 -11.1700 -11.1332  -9.9922  -8.0005  -7.5393  -7.5393  -7.3773
    -7.2718  -7.2718  -7.2544  -6.2850  -6.2850  -6.1211  -6.1211  -6.0770
    -4.5985  -4.5985  -2.6725  -1.5996  -1.5996  -1.4854   0.9557   1.8471
     2.3191   2.6959   3.2556   3.2556

          k = 0.0000 0.3849 0.0000 ( 37488 PWs)   bands (ev):

   -21.1424 -20.1345 -19.2972 -19.0925 -17.6835 -17.4025 -16.6757 -16.0491
   -15.8196 -14.0464 -13.5279 -13.4281 -12.5903 -12.5283 -10.9090 -10.7494
   -10.1876  -9.7705  -9.5888  -8.6895  -8.5866  -8.3445  -8.2143  -7.9501
    -7.7236  -7.6898  -7.2773  -6.8405  -6.3429  -5.7407  -5.6195  -5.1734
    -4.9916  -4.4734  -3.7308  -3.3481  -0.7416   0.1550   0.4720   1.2754
     1.7059   1.7681   2.6158   2.8265

          k = 0.3333 0.5774 0.0000 ( 37407 PWs)   bands (ev):

   -20.9261 -20.1827 -20.1779 -18.0663 -17.7093 -17.6752 -16.0151 -15.7251
   -15.5975 -14.7309 -14.6990 -14.6771 -11.5652 -11.3722 -11.1758 -10.0058
    -9.9550  -9.7043  -9.5936  -8.9801  -8.8979  -8.8510  -8.1223  -8.1062
    -7.3508  -7.2993  -7.2570  -6.4062  -6.3390  -6.2835  -6.1713  -5.3102
    -5.1977  -4.1521  -3.7313  -3.5852  -0.8343  -0.0390   0.0376   1.4138
     2.2163   2.3203   2.5071   2.7255

     the Fermi energy is    -0.8287 ev

!    total energy              =    -332.97246174 Ry
     total all-electron energy =     -1372.726207 Ry
     estimated scf accuracy    <       0.00000058 Ry
     smearing contrib. (-TS)   =      -0.00391970 Ry
     internal energy E=F+TS    =    -332.96854204 Ry

     The total energy is F=E-TS. E is the sum of the following terms:
     one-electron contribution =   -1449.69189805 Ry
     hartree contribution      =     740.04298286 Ry
     xc contribution           =     -84.46077887 Ry
     ewald contribution        =     572.14938326 Ry
     one-center paw contrib.   =    -111.00823123 Ry

     convergence has been achieved in   8 iterations

     negative rho (up, down):  5.182E-05 0.000E+00

     Forces acting on atoms (cartesian axes, Ry/au):

     atom    1 type  1   force =     0.00000000    0.00000000    0.07083474
     atom    2 type  1   force =     0.10196277    0.05886823   -0.04816695
     atom    3 type  1   force =    -0.00374580   -0.01717902   -0.00064738
     atom    4 type  1   force =     0.00000000    0.00865423   -0.00007139
     atom    5 type  1   force =    -0.01675037    0.00534555   -0.00064738
     atom    6 type  1   force =     0.00749479   -0.00432712   -0.00007139
     atom    7 type  1   force =    -0.01300457    0.01183347   -0.00064738
     atom    8 type  1   force =    -0.00000000    0.00746581    0.00240486
     atom    9 type  1   force =     0.00374580   -0.01717902   -0.00064738
     atom   10 type  1   force =     0.00646558   -0.00373290    0.00240486
     atom   11 type  1   force =     0.00000000    0.00000000    0.00037646
     atom   12 type  1   force =    -0.00749479   -0.00432712   -0.00007139
     atom   13 type  1   force =     0.01300457    0.01183347   -0.00064738
     atom   14 type  1   force =    -0.10196277    0.05886823   -0.04816695
     atom   15 type  1   force =     0.00000000   -0.00000000   -0.00016447
     atom   16 type  1   force =    -0.00646558   -0.00373290    0.00240486
     atom   17 type  1   force =     0.01675037    0.00534555   -0.00064738
     atom   18 type  1   force =     0.00000000   -0.11773646   -0.04816695
     atom   19 type  2   force =     0.00000000   -0.00000000    0.07033799
     The non-local contrib.  to forces
     atom    1 type  1   force =     0.00000000    0.00000000    0.32770616
     atom    2 type  1   force =    -0.03687984   -0.02129258    0.01505151
     atom    3 type  1   force =     0.00353733   -0.03425420    0.00687539
     atom    4 type  1   force =     0.00000000   -0.00794846    0.00687004
     atom    5 type  1   force =    -0.02789634    0.02019052    0.00687539
     atom    6 type  1   force =    -0.00688357    0.00397423    0.00687004
     atom    7 type  1   force =    -0.03143368    0.01406368    0.00687539
     atom    8 type  1   force =     0.00000000   -0.00407170    0.00059231
     atom    9 type  1   force =    -0.00353733   -0.03425420    0.00687539
     atom   10 type  1   force =    -0.00352619    0.00203585    0.00059231
     atom   11 type  1   force =     0.00000000    0.00000000    0.00630694
     atom   12 type  1   force =     0.00688357    0.00397423    0.00687004
     atom   13 type  1   force =     0.03143368    0.01406368    0.00687539
     atom   14 type  1   force =     0.03687984   -0.02129258    0.01505151
     atom   15 type  1   force =     0.00000000   -0.00000000    0.00575003
     atom   16 type  1   force =     0.00352619    0.00203585    0.00059231
     atom   17 type  1   force =     0.02789634    0.02019052    0.00687539
     atom   18 type  1   force =     0.00000000    0.04258517    0.01505151
     atom   19 type  2   force =     0.00000000   -0.00000000   -0.06873339
     The ionic contribution  to forces
     atom    1 type  1   force =    -0.00000000   -0.00000000   -1.87395895
     atom    2 type  1   force =     0.43906474    0.25349415   -0.45091470
     atom    3 type  1   force =    -0.10158775    0.17595515   -0.15987269
     atom    4 type  1   force =     0.00000000    0.14046316   -0.12465280
     atom    5 type  1   force =     0.10158775   -0.17595515   -0.15987269
     atom    6 type  1   force =     0.12164467   -0.07023158   -0.12465280
     atom    7 type  1   force =     0.20317551   -0.00000000   -0.15987269
     atom    8 type  1   force =    -0.00000000    0.01996049   -0.09837841
     atom    9 type  1   force =     0.10158775    0.17595515   -0.15987269
     atom   10 type  1   force =     0.01728629   -0.00998024   -0.09837841
     atom   11 type  1   force =    -0.00000000    0.00000000   -0.08883318
     atom   12 type  1   force =    -0.12164467   -0.07023158   -0.12465280
     atom   13 type  1   force =    -0.20317551   -0.00000000   -0.15987269
     atom   14 type  1   force =    -0.43906474    0.25349415   -0.45091470
     atom   15 type  1   force =     0.00000000    0.00000000   -0.08883318
     atom   16 type  1   force =    -0.01728629   -0.00998024   -0.09837841
     atom   17 type  1   force =    -0.10158775   -0.17595515   -0.15987269
     atom   18 type  1   force =     0.00000000   -0.50698829   -0.45091470
     atom   19 type  2   force =     0.00000000   -0.00000000    5.03269916
     The local contribution  to forces
     atom    1 type  1   force =    -0.00000000   -0.00000000    1.61760224
     atom    2 type  1   force =    -0.30114198   -0.17386440    0.38761384
     atom    3 type  1   force =     0.09469417   -0.15897411    0.15236604
     atom    4 type  1   force =    -0.00000000   -0.12356603    0.11777891
     atom    5 type  1   force =    -0.09032854    0.16149461    0.15236604
     atom    6 type  1   force =    -0.10701132    0.06178302    0.11777891
     atom    7 type  1   force =    -0.18502270   -0.00252050    0.15236604
     atom    8 type  1   force =    -0.00000000   -0.00903428    0.10018054
     atom    9 type  1   force =    -0.09469417   -0.15897411    0.15236604
     atom   10 type  1   force =    -0.00782392    0.00451714    0.10018054
     atom   11 type  1   force =    -0.00000000    0.00000000    0.08302902
     atom   12 type  1   force =     0.10701132    0.06178302    0.11777891
     atom   13 type  1   force =     0.18502270   -0.00252050    0.15236604
     atom   14 type  1   force =     0.30114198   -0.17386440    0.38761384
     atom   15 type  1   force =    -0.00000000    0.00000000    0.08304371
     atom   16 type  1   force =     0.00782392    0.00451714    0.10018054
     atom   17 type  1   force =     0.09032854    0.16149461    0.15236604
     atom   18 type  1   force =    -0.00000000    0.34772880    0.38761384
     atom   19 type  2   force =     0.00000000   -0.00000000   -4.89367304
     The core correction contribution to forces
     atom    1 type  1   force =    -0.00000000   -0.00000000   -0.00086318
     atom    2 type  1   force =     0.00075507    0.00043594   -0.00012626
     atom    3 type  1   force =    -0.00000395    0.00047866   -0.00008406
     atom    4 type  1   force =     0.00000000    0.00012444   -0.00009135
     atom    5 type  1   force =     0.00041255   -0.00024275   -0.00008406
     atom    6 type  1   force =     0.00010777   -0.00006222   -0.00009135
     atom    7 type  1   force =     0.00041650   -0.00023591   -0.00008406
     atom    8 type  1   force =    -0.00000000    0.00010528    0.00001409
     atom    9 type  1   force =     0.00000395    0.00047866   -0.00008406
     atom   10 type  1   force =     0.00009118   -0.00005264    0.00001409
     atom   11 type  1   force =    -0.00000000   -0.00000000   -0.00011295
     atom   12 type  1   force =    -0.00010777   -0.00006222   -0.00009135
     atom   13 type  1   force =    -0.00041650   -0.00023591   -0.00008406
     atom   14 type  1   force =    -0.00075507    0.00043594   -0.00012626
     atom   15 type  1   force =    -0.00000000   -0.00000000   -0.00009586
     atom   16 type  1   force =    -0.00009118   -0.00005264    0.00001409
     atom   17 type  1   force =    -0.00041255   -0.00024275   -0.00008406
     atom   18 type  1   force =    -0.00000000   -0.00087188   -0.00012626
     atom   19 type  2   force =     0.00000000    0.00000000    0.00000000
     The Hubbard contrib.    to forces
     atom    1 type  1   force =     0.00000000    0.00000000    0.00000000
     atom    2 type  1   force =     0.00000000    0.00000000    0.00000000
     atom    3 type  1   force =     0.00000000    0.00000000    0.00000000
     atom    4 type  1   force =     0.00000000    0.00000000    0.00000000
     atom    5 type  1   force =     0.00000000    0.00000000    0.00000000
     atom    6 type  1   force =     0.00000000    0.00000000    0.00000000
     atom    7 type  1   force =     0.00000000    0.00000000    0.00000000
     atom    8 type  1   force =     0.00000000    0.00000000    0.00000000
     atom    9 type  1   force =     0.00000000    0.00000000    0.00000000
     atom   10 type  1   force =     0.00000000    0.00000000    0.00000000
     atom   11 type  1   force =     0.00000000    0.00000000    0.00000000
     atom   12 type  1   force =     0.00000000    0.00000000    0.00000000
     atom   13 type  1   force =     0.00000000    0.00000000    0.00000000
     atom   14 type  1   force =     0.00000000    0.00000000    0.00000000
     atom   15 type  1   force =     0.00000000    0.00000000    0.00000000
     atom   16 type  1   force =     0.00000000    0.00000000    0.00000000
     atom   17 type  1   force =     0.00000000    0.00000000    0.00000000
     atom   18 type  1   force =     0.00000000    0.00000000    0.00000000
     atom   19 type  2   force =     0.00000000    0.00000000    0.00000000
     The SCF correction term to forces
     atom    1 type  1   force =     0.00000000    0.00000000    0.00033632
     atom    2 type  1   force =     0.00016477    0.00009513    0.00019652
     atom    3 type  1   force =    -0.00038560   -0.00038452    0.00005578
     atom    4 type  1   force =    -0.00000000   -0.00041887    0.00001167
     atom    5 type  1   force =    -0.00052580   -0.00014168    0.00005578
     atom    6 type  1   force =    -0.00036276    0.00020944    0.00001167
     atom    7 type  1   force =    -0.00014021    0.00052620    0.00005578
     atom    8 type  1   force =    -0.00000000    0.00050602   -0.00001582
     atom    9 type  1   force =     0.00038560   -0.00038452    0.00005578
     atom   10 type  1   force =     0.00043822   -0.00025301   -0.00001582
     atom   11 type  1   force =     0.00000000   -0.00000000   -0.00002553
     atom   12 type  1   force =     0.00036276    0.00020944    0.00001167
     atom   13 type  1   force =     0.00014021    0.00052620    0.00005578
     atom   14 type  1   force =    -0.00016477    0.00009513    0.00019652
     atom   15 type  1   force =     0.00000000    0.00000000   -0.00004132
     atom   16 type  1   force =    -0.00043822   -0.00025301   -0.00001582
     atom   17 type  1   force =     0.00052580   -0.00014168    0.00005578
     atom   18 type  1   force =     0.00000000   -0.00019026    0.00019652
     atom   19 type  2   force =    -0.00000000    0.00000000    0.00003311

     Total force =     0.246531     Total SCF correction =     0.001853

     BFGS Geometry Optimization
     Energy error            =      0.0E+00 Ry
     Gradient error          =      1.2E-01 Ry/Bohr

     number of scf cycles    =   1
     number of bfgs steps    =   0

     energy             new  =    -332.9724617443 Ry

     new trust radius        =       0.1272082101 bohr
     new conv_thr            =       0.0000010000 Ry


ATOMIC_POSITIONS (angstrom)
C             0.0000000000        0.0000000000        0.0374841285
C             1.2839563719        0.7412925570       -0.0254888497
C            -1.2319821931        2.1213317452       -0.0003425801
C             0.0000000000        2.8451429475       -0.0000377781
C            -2.4688639153        4.2636737311       -0.0003425801
C            -1.2260339300        4.9686960061       -0.0000377781
C             2.4531182777        0.0062620036       -0.0003425801
C             3.6900000000        0.7140915669        0.0012725982
C             1.2319821931        2.1213317452       -0.0003425801
C             2.4634214376        2.8385879565        0.0012725982
C             0.0000000000        4.2608449866        0.0001992120
C             1.2260339300        4.9686960061       -0.0000377781
C             4.9268817223        0.0062620036       -0.0003425801
C             6.0960436281        0.7412925570       -0.0254888497
C             3.6900000000        2.1304224933       -0.0000870349
C             4.9165785624        2.8385879565        0.0012725982
C             2.4688639153        4.2636737311       -0.0003425801
C             3.6900000000        4.9086823660       -0.0254888497
H             0.0000000000       -0.0000000000        1.1372212639



     Writing config-only to output data dir ./graphene_h_over_c.save/
     NEW-OLD atomic charge density approx. for the potential

     negative rho (up, down):  4.956E-05 0.000E+00

     total cpu time spent up to now is       24.9 secs

     Self-consistent Calculation

     iteration #  1     ecut=    60.00 Ry     beta= 0.70
     Davidson diagonalization with overlap
     ethr =  1.00E-06,  avg # of iterations = 12.0

     negative rho (up, down):  5.229E-05 0.000E+00

     total cpu time spent up to now is       28.3 secs

     total energy              =    -332.98803201 Ry
     estimated scf accuracy    <       0.01868023 Ry

     iteration #  2     ecut=    60.00 Ry     beta= 0.70
     Davidson diagonalization with overlap
     ethr =  2.56E-05,  avg # of iterations =  3.0

     negative rho (up, down):  8.097E-05 0.000E+00

     total cpu time spent up to now is       30.0 secs

     total energy              =    -332.99165747 Ry
     estimated scf accuracy    <       0.01190184 Ry

     iteration #  3     ecut=    60.00 Ry     beta= 0.70
     Davidson diagonalization with overlap
     ethr =  1.63E-05,  avg # of iterations =  3.3

     negative rho (up, down):  7.043E-05 0.000E+00

     total cpu time spent up to now is       31.6 secs

     total energy              =    -332.99409697 Ry
     estimated scf accuracy    <       0.00127964 Ry

     iteration #  4     ecut=    60.00 Ry     beta= 0.70
     Davidson diagonalization with overlap
     ethr =  1.75E-06,  avg # of iterations =  3.0

     negative rho (up, down):  5.529E-05 0.000E+00

     total cpu time spent up to now is       33.2 secs

     total energy              =    -332.99447856 Ry
     estimated scf accuracy    <       0.00012197 Ry

     iteration #  5     ecut=    60.00 Ry     beta= 0.70
     Davidson diagonalization with overlap
     ethr =  1.67E-07,  avg # of iterations =  2.7

     negative rho (up, down):  5.434E-05 0.000E+00

     total cpu time spent up to now is       34.7 secs

     total energy              =    -332.99449390 Ry
     estimated scf accuracy    <       0.00000891 Ry

     iteration #  6     ecut=    60.00 Ry     beta= 0.70
     Davidson diagonalization with overlap
     ethr =  1.22E-08,  avg # of iterations =  2.7

     negative rho (up, down):  5.429E-05 0.000E+00

     total cpu time spent up to now is       36.3 secs

     End of self-consistent calculation

          k = 0.0000 0.0000 0.0000 ( 37425 PWs)   bands (ev):

   -21.2396 -18.8662 -18.7270 -18.7270 -18.5068 -18.4556 -18.4556 -14.4686
   -14.2935 -14.1735 -14.1735 -12.1950 -12.1950 -11.6272 -11.4046 -11.4046
   -11.1960 -11.0455 -11.0455  -9.6909  -7.8271  -7.7002  -7.4301  -7.4301
    -7.2243  -7.2243  -7.1814  -6.4153  -6.4153  -6.1563  -6.1104  -6.1104
    -4.5548  -4.5548  -2.9508  -1.5661  -1.5661  -1.5311   0.9424   1.7826
     2.3241   2.7093   3.3397   3.3397

          k = 0.0000 0.3849 0.0000 ( 37488 PWs)   bands (ev):

   -20.9562 -20.0669 -19.2083 -19.1698 -17.5576 -17.4753 -16.7003 -15.9619
   -15.8929 -14.0666 -13.5042 -13.4049 -12.5999 -12.5351 -10.7909 -10.7815
   -10.0730  -9.7464  -9.4218  -8.6829  -8.6108  -8.2919  -8.2022  -7.9218
    -7.7211  -7.6818  -7.2768  -6.9253  -6.3149  -5.7240  -5.6596  -5.1484
    -5.0122  -4.5314  -3.8195  -3.3784  -1.0288   0.1936   0.5726   1.3173
     1.7813   1.8283   2.6564   2.8524

          k = 0.3333 0.5774 0.0000 ( 37407 PWs)   bands (ev):

   -20.5504 -20.2967 -20.2125 -17.9225 -17.7877 -17.6541 -15.8243 -15.8219
   -15.6900 -14.8656 -14.6315 -14.6136 -11.5959 -11.3059 -11.1659  -9.8932
    -9.7259  -9.7233  -9.5722  -8.8982  -8.8837  -8.8095  -8.2098  -8.1538
    -7.5561  -7.2312  -7.0426  -6.5915  -6.3553  -6.1321  -6.0425  -5.4661
    -5.1987  -4.1841  -3.8038  -3.6329  -1.1684   0.0985   0.1021   1.4107
     2.3142   2.4697   2.5682   2.7133

     the Fermi energy is    -1.1330 ev

!    total energy              =    -332.99449681 Ry
     total all-electron energy =     -1372.748242 Ry
     estimated scf accuracy    <       0.00000065 Ry
     smearing contrib. (-TS)   =      -0.00284119 Ry
     internal energy E=F+TS    =    -332.99165562 Ry

     The total energy is F=E-TS. E is the sum of the following terms:
     one-electron contribution =   -1449.09262533 Ry
     hartree contribution      =     739.78665863 Ry
     xc contribution           =     -84.47884998 Ry
     ewald contribution        =     571.80428565 Ry
     one-center paw contrib.   =    -111.01112459 Ry

     convergence has been achieved in   6 iterations

     negative rho (up, down):  5.429E-05 0.000E+00

     Forces acting on atoms (cartesian axes, Ry/au):

     atom    1 type  1   force =     0.00000000    0.00000000    0.05366270
     atom    2 type  1   force =    -0.05374951   -0.03103230   -0.02748246
     atom    3 type  1   force =    -0.02155981    0.05058775   -0.00555535
     atom    4 type  1   force =     0.00000000   -0.02377328    0.00091798
     atom    5 type  1   force =     0.03303037   -0.04396521   -0.00555535
     atom    6 type  1   force =    -0.02058826    0.01188664    0.00091798
     atom    7 type  1   force =     0.05459018   -0.00662253   -0.00555535
     atom    8 type  1   force =     0.00000000   -0.00777802    0.00135336
     atom    9 type  1   force =     0.02155981    0.05058775   -0.00555535
     atom   10 type  1   force =    -0.00673596    0.00388901    0.00135336
     atom   11 type  1   force =     0.00000000    0.00000000    0.00294273
     atom   12 type  1   force =     0.02058826    0.01188664    0.00091798
     atom   13 type  1   force =    -0.05459018   -0.00662253   -0.00555535
     atom   14 type  1   force =     0.05374951   -0.03103230   -0.02748246
     atom   15 type  1   force =     0.00000000   -0.00000000    0.00003332
     atom   16 type  1   force =     0.00673596    0.00388901    0.00135336
     atom   17 type  1   force =    -0.03303037   -0.04396521   -0.00555535
     atom   18 type  1   force =     0.00000000    0.06206459   -0.02748246
     atom   19 type  2   force =     0.00000000   -0.00000000    0.05232669
     The non-local contrib.  to forces
     atom    1 type  1   force =     0.00000000   -0.00000000    0.22884656
     atom    2 type  1   force =    -0.15961591   -0.09215429    0.02682137
     atom    3 type  1   force =    -0.00583365    0.03745514   -0.00760239
     atom    4 type  1   force =     0.00000000   -0.03491569    0.01166562
     atom    5 type  1   force =     0.02952028   -0.02377966   -0.00760239
     atom    6 type  1   force =    -0.03023787    0.01745784    0.01166562
     atom    7 type  1   force =     0.03535393   -0.01367548   -0.00760239
     atom    8 type  1   force =     0.00000000   -0.00659309    0.00114538
     atom    9 type  1   force =     0.00583365    0.03745514   -0.00760239
     atom   10 type  1   force =    -0.00570979    0.00329655    0.00114538
     atom   11 type  1   force =     0.00000000    0.00000000    0.00846240
     atom   12 type  1   force =     0.03023787    0.01745784    0.01166562
     atom   13 type  1   force =    -0.03535393   -0.01367548   -0.00760239
     atom   14 type  1   force =     0.15961591   -0.09215429    0.02682137
     atom   15 type  1   force =     0.00000000   -0.00000000    0.00557190
     atom   16 type  1   force =     0.00570979    0.00329655    0.00114538
     atom   17 type  1   force =    -0.02952028   -0.02377966   -0.00760239
     atom   18 type  1   force =     0.00000000    0.18430858    0.02682137
     atom   19 type  2   force =     0.00000000   -0.00000000   -0.07015939
     The ionic contribution  to forces
     atom    1 type  1   force =     0.00000000   -0.00000000   -1.03913336
     atom    2 type  1   force =    -0.29379799   -0.16962435   -0.94061140
     atom    3 type  1   force =     0.15686888    0.44699838   -0.08885759
     atom    4 type  1   force =    -0.00000000    0.04818153   -0.10159265
     atom    5 type  1   force =     0.46554640   -0.08764675   -0.08885759
     atom    6 type  1   force =     0.04172643   -0.02409077   -0.10159265
     atom    7 type  1   force =     0.30867751   -0.35935163   -0.08885759
     atom    8 type  1   force =     0.00000000   -0.14580670   -0.04364106
     atom    9 type  1   force =    -0.15686888    0.44699838   -0.08885759
     atom   10 type  1   force =    -0.12627230    0.07290335   -0.04364106
     atom   11 type  1   force =    -0.00000000    0.00000000   -0.07034633
     atom   12 type  1   force =    -0.04172643   -0.02409077   -0.10159265
     atom   13 type  1   force =    -0.30867751   -0.35935163   -0.08885759
     atom   14 type  1   force =     0.29379799   -0.16962435   -0.94061140
     atom   15 type  1   force =    -0.00000000    0.00000000   -0.07413124
     atom   16 type  1   force =     0.12627230    0.07290335   -0.04364106
     atom   17 type  1   force =    -0.46554640   -0.08764675   -0.08885759
     atom   18 type  1   force =    -0.00000000    0.33924870   -0.94061140
     atom   19 type  2   force =     0.00000000   -0.00000000    4.97429182
     The local contribution  to forces
     atom    1 type  1   force =    -0.00000000   -0.00000000    0.86459707
     atom    2 type  1   force =     0.39519505    0.22816597    0.88683595
     atom    3 type  1   force =    -0.17231983   -0.43236657    0.09131343
     atom    4 type  1   force =     0.00000000   -0.03830675    0.09149704
     atom    5 type  1   force =    -0.46060035    0.06694993    0.09131343
     atom    6 type  1   force =    -0.03317462    0.01915337    0.09149704
     atom    7 type  1   force =    -0.28828052    0.36541664    0.09131343
     atom    8 type  1   force =    -0.00000000    0.14429298    0.04435348
     atom    9 type  1   force =     0.17231983   -0.43236657    0.09131343
     atom   10 type  1   force =     0.12496138   -0.07214649    0.04435348
     atom   11 type  1   force =     0.00000000    0.00000000    0.06545354
     atom   12 type  1   force =     0.03317462    0.01915337    0.09149704
     atom   13 type  1   force =     0.28828052    0.36541664    0.09131343
     atom   14 type  1   force =    -0.39519505    0.22816597    0.88683595
     atom   15 type  1   force =    -0.00000000    0.00000000    0.06918053
     atom   16 type  1   force =    -0.12496138   -0.07214649    0.04435348
     atom   17 type  1   force =     0.46060035    0.06694993    0.09131343
     atom   18 type  1   force =     0.00000000   -0.45633194    0.88683595
     atom   19 type  2   force =     0.00000000   -0.00000000   -4.85185631
     The core correction contribution to forces
     atom    1 type  1   force =     0.00000000   -0.00000000    0.00009242
     atom    2 type  1   force =     0.00433121    0.00250062    0.00002371
     atom    3 type  1   force =    -0.00029240   -0.00177375    0.00006268
     atom    4 type  1   force =     0.00000000    0.00078960   -0.00018357
     atom    5 type  1   force =    -0.00168231    0.00063365    0.00006268
     atom    6 type  1   force =     0.00068381   -0.00039480   -0.00018357
     atom    7 type  1   force =    -0.00138991    0.00114010    0.00006268
     atom    8 type  1   force =    -0.00000000    0.00035407   -0.00001994
     atom    9 type  1   force =     0.00029240   -0.00177375    0.00006268
     atom   10 type  1   force =     0.00030663   -0.00017704   -0.00001994
     atom   11 type  1   force =     0.00000000   -0.00000000   -0.00014274
     atom   12 type  1   force =    -0.00068381   -0.00039480   -0.00018357
     atom   13 type  1   force =     0.00138991    0.00114010    0.00006268
     atom   14 type  1   force =    -0.00433121    0.00250062    0.00002371
     atom   15 type  1   force =    -0.00000000   -0.00000000   -0.00008004
     atom   16 type  1   force =    -0.00030663   -0.00017704   -0.00001994
     atom   17 type  1   force =     0.00168231    0.00063365    0.00006268
     atom   18 type  1   force =    -0.00000000   -0.00500125    0.00002371
     atom   19 type  2   force =     0.00000000    0.00000000    0.00000000
     The Hubbard contrib.    to forces
     atom    1 type  1   force =     0.00000000    0.00000000    0.00000000
     atom    2 type  1   force =     0.00000000    0.00000000    0.00000000
     atom    3 type  1   force =     0.00000000    0.00000000    0.00000000
     atom    4 type  1   force =     0.00000000    0.00000000    0.00000000
     atom    5 type  1   force =     0.00000000    0.00000000    0.00000000
     atom    6 type  1   force =     0.00000000    0.00000000    0.00000000
     atom    7 type  1   force =     0.00000000    0.00000000    0.00000000
     atom    8 type  1   force =     0.00000000    0.00000000    0.00000000
     atom    9 type  1   force =     0.00000000    0.00000000    0.00000000
     atom   10 type  1   force =     0.00000000    0.00000000    0.00000000
     atom   11 type  1   force =     0.00000000    0.00000000    0.00000000
     atom   12 type  1   force =     0.00000000    0.00000000    0.00000000
     atom   13 type  1   force =     0.00000000    0.00000000    0.00000000
     atom   14 type  1   force =     0.00000000    0.00000000    0.00000000
     atom   15 type  1   force =     0.00000000    0.00000000    0.00000000
     atom   16 type  1   force =     0.00000000    0.00000000    0.00000000
     atom   17 type  1   force =     0.00000000    0.00000000    0.00000000
     atom   18 type  1   force =     0.00000000    0.00000000    0.00000000
     atom   19 type  2   force =     0.00000000    0.00000000    0.00000000
     The SCF correction term to forces
     atom    1 type  1   force =    -0.00000000    0.00000000   -0.00074754
     atom    2 type  1   force =     0.00013814    0.00007975   -0.00055965
     atom    3 type  1   force =     0.00001718    0.00027454   -0.00047902
     atom    4 type  1   force =    -0.00000000    0.00047803   -0.00047601
     atom    5 type  1   force =     0.00024635   -0.00012239   -0.00047902
     atom    6 type  1   force =     0.00041398   -0.00023901   -0.00047601
     atom    7 type  1   force =     0.00022917   -0.00015215   -0.00047902
     atom    8 type  1   force =    -0.00000000   -0.00002528   -0.00049204
     atom    9 type  1   force =    -0.00001718    0.00027454   -0.00047902
     atom   10 type  1   force =    -0.00002189    0.00001264   -0.00049204
     atom   11 type  1   force =    -0.00000000    0.00000000   -0.00049168
     atom   12 type  1   force =    -0.00041398   -0.00023901   -0.00047601
     atom   13 type  1   force =    -0.00022917   -0.00015215   -0.00047902
     atom   14 type  1   force =    -0.00013814    0.00007975   -0.00055965
     atom   15 type  1   force =     0.00000000    0.00000000   -0.00051538
     atom   16 type  1   force =     0.00002189    0.00001264   -0.00049204
     atom   17 type  1   force =    -0.00024635   -0.00012239   -0.00047902
     atom   18 type  1   force =     0.00000000   -0.00015951   -0.00055965
     atom   19 type  2   force =    -0.00000000    0.00000000    0.00004301

     Total force =     0.199154     Total SCF correction =     0.002451
     Energy error            =      2.2E-02 Ry
     Gradient error          =      6.2E-02 Ry/Bohr

     number of scf cycles    =   2
     number of bfgs steps    =   1

     energy             old  =    -332.9724617443 Ry
     energy             new  =    -332.9944968097 Ry

     CASE: energy            _new < energy            _old

     new trust radius        =       0.0684382627 bohr
     new conv_thr            =       0.0000006206 Ry


ATOMIC_POSITIONS (angstrom)
C             0.0000000000        0.0000000000        0.0737000975
C             1.2811836812        0.7396917432       -0.0463399776
C            -1.2417443202        2.1392061654       -0.0027964269
C             0.0000000000        2.8368556046        0.0003331442
C            -2.4582652770        4.2462822709       -0.0027964269
C            -1.2332109795        4.9728396776        0.0003331442
C             2.4734790433        0.0057790437       -0.0027964269
C             3.6900000000        0.7122780673        0.0023057785
C             1.2417443202        2.1392061654       -0.0027964269
C             2.4618509009        2.8394947063        0.0023057785
C             0.0000000000        4.2608449866        0.0015055382
C             1.2332109795        4.9728396776        0.0003331442
C             4.9065209567        0.0057790437       -0.0027964269
C             6.0988163188        0.7396917432       -0.0463399776
C             3.6900000000        2.1304224933       -0.0001049364
C             4.9181490991        2.8394947063        0.0023057785
C             2.4582652770        4.2462822709       -0.0027964269
C             3.6900000000        4.9118839934       -0.0463399776
H             0.0000000000       -0.0000000000        1.1727810269



     Writing config-only to output data dir ./graphene_h_over_c.save/
     NEW-OLD atomic charge density approx. for the potential

     negative rho (up, down):  5.283E-05 0.000E+00

     total cpu time spent up to now is       42.4 secs

     Self-consistent Calculation

     iteration #  1     ecut=    60.00 Ry     beta= 0.70
     Davidson diagonalization with overlap
     ethr =  1.00E-06,  avg # of iterations =  7.7

     negative rho (up, down):  5.250E-05 0.000E+00

     total cpu time spent up to now is       45.2 secs

     total energy              =    -333.00728948 Ry
     estimated scf accuracy    <       0.00393784 Ry

     iteration #  2     ecut=    60.00 Ry     beta= 0.70
     Davidson diagonalization with overlap
     ethr =  5.39E-06,  avg # of iterations =  4.0

     negative rho (up, down):  6.674E-05 0.000E+00

     total cpu time spent up to now is       47.0 secs

     total energy              =    -333.00796268 Ry
     estimated scf accuracy    <       0.00258974 Ry

     iteration #  3     ecut=    60.00 Ry     beta= 0.70
     Davidson diagonalization with overlap
     ethr =  3.55E-06,  avg # of iterations =  6.0

     negative rho (up, down):  5.896E-05 0.000E+00

     total cpu time spent up to now is       48.8 secs

     total energy              =    -333.00852421 Ry
     estimated scf accuracy    <       0.00027322 Ry

     iteration #  4     ecut=    60.00 Ry     beta= 0.70
     Davidson diagonalization with overlap
     ethr =  3.74E-07,  avg # of iterations =  3.0

     negative rho (up, down):  5.341E-05 0.000E+00

     total cpu time spent up to now is       50.4 secs

     total energy              =    -333.00859972 Ry
     estimated scf accuracy    <       0.00003164 Ry

     iteration #  5     ecut=    60.00 Ry     beta= 0.70
     Davidson diagonalization with overlap
     ethr =  4.33E-08,  avg # of iterations =  3.3

     negative rho (up, down):  5.294E-05 0.000E+00

     total cpu time spent up to now is       51.9 secs

     total energy              =    -333.00860512 Ry
     estimated scf accuracy    <       0.00000131 Ry

     iteration #  6     ecut=    60.00 Ry     beta= 0.70
     Davidson diagonalization with overlap
     ethr =  1.79E-09,  avg # of iterations =  3.0

     negative rho (up, down):  5.290E-05 0.000E+00

     total cpu time spent up to now is       53.6 secs

     End of self-consistent calculation

          k = 0.0000 0.0000 0.0000 ( 37425 PWs)   bands (ev):

   -21.2124 -18.7901 -18.6721 -18.6721 -18.5142 -18.5142 -18.4969 -14.3929
   -14.2977 -14.1756 -14.1756 -12.1706 -12.1706 -11.6331 -11.3352 -11.3352
   -11.1890 -11.0970 -11.0970  -9.6728  -7.9293  -7.5136  -7.4086  -7.4013
    -7.4013  -7.2090  -7.2090  -6.3269  -6.3269  -6.1908  -6.1908  -6.1403
    -4.5634  -4.5634  -2.9513  -1.5721  -1.5721  -1.5368   0.8118   1.7587
     2.3113   2.7278   3.4171   3.4172

          k = 0.0000 0.3849 0.0000 ( 37488 PWs)   bands (ev):

   -20.9227 -20.0466 -19.1943 -19.1638 -17.5177 -17.4814 -16.6994 -15.9163
   -15.9067 -14.0448 -13.4818 -13.3911 -12.6118 -12.5095 -10.7843 -10.7695
   -10.0729  -9.7418  -9.3710  -8.6562  -8.6101  -8.2827  -8.2276  -7.9506
    -7.7008  -7.6470  -7.3263  -6.9261  -6.2968  -5.7254  -5.6843  -5.2030
    -4.9898  -4.5476  -3.7769  -3.3904  -1.0900   0.1914   0.5191   1.2597
     1.8105   1.8301   2.6506   2.8560

          k = 0.3333 0.5774 0.0000 ( 37407 PWs)   bands (ev):

   -20.4371 -20.3333 -20.2312 -17.8772 -17.8066 -17.6359 -15.8487 -15.7245
   -15.7153 -14.8324 -14.6530 -14.5946 -11.5326 -11.3537 -11.1419  -9.8850
    -9.8155  -9.6365  -9.5092  -8.8725  -8.8704  -8.8332  -8.2431  -8.1710
    -7.3838  -7.2191  -7.1904  -6.4301  -6.3864  -6.2295  -6.2169  -5.3384
    -5.1867  -4.2756  -3.7239  -3.6673  -1.2143   0.0273   0.1189   1.3787
     2.4192   2.4370   2.4597   2.7064

     the Fermi energy is    -1.1907 ev

!    total energy              =    -333.00860560 Ry
     total all-electron energy =     -1372.762351 Ry
     estimated scf accuracy    <       0.00000007 Ry
     smearing contrib. (-TS)   =      -0.00281318 Ry
     internal energy E=F+TS    =    -333.00579242 Ry

     The total energy is F=E-TS. E is the sum of the following terms:
     one-electron contribution =   -1448.21600698 Ry
     hartree contribution      =     739.35271604 Ry
     xc contribution           =     -84.46066981 Ry
     ewald contribution        =     571.32848594 Ry
     one-center paw contrib.   =    -111.01031761 Ry

     convergence has been achieved in   6 iterations

     negative rho (up, down):  5.290E-05 0.000E+00

     Forces acting on atoms (cartesian axes, Ry/au):

     atom    1 type  1   force =     0.00000000    0.00000000    0.02709290
     atom    2 type  1   force =    -0.02318897   -0.01338816   -0.00889819
     atom    3 type  1   force =     0.00642756   -0.01375272   -0.00930106
     atom    4 type  1   force =    -0.00000000    0.01362458    0.00146858
     atom    5 type  1   force =    -0.00869642    0.01244279   -0.00930106
     atom    6 type  1   force =     0.01179923   -0.00681229    0.00146858
     atom    7 type  1   force =    -0.01512398    0.00130993   -0.00930106
     atom    8 type  1   force =     0.00000000    0.01027083   -0.00092218
     atom    9 type  1   force =    -0.00642756   -0.01375272   -0.00930106
     atom   10 type  1   force =     0.00889480   -0.00513541   -0.00092218
     atom   11 type  1   force =     0.00000000    0.00000000    0.00497655
     atom   12 type  1   force =    -0.01179923   -0.00681229    0.00146858
     atom   13 type  1   force =     0.01512398    0.00130993   -0.00930106
     atom   14 type  1   force =     0.02318897   -0.01338816   -0.00889819
     atom   15 type  1   force =     0.00000000    0.00000000    0.00075885
     atom   16 type  1   force =    -0.00889480   -0.00513541   -0.00092218
     atom   17 type  1   force =     0.00869642    0.01244279   -0.00930106
     atom   18 type  1   force =     0.00000000    0.02677631   -0.00889819
     atom   19 type  2   force =     0.00000000   -0.00000000    0.04803346
     The non-local contrib.  to forces
     atom    1 type  1   force =     0.00000000    0.00000000    0.16382541
     atom    2 type  1   force =    -0.12341310   -0.07125258    0.04695004
     atom    3 type  1   force =     0.02475197   -0.01714311   -0.01720415
     atom    4 type  1   force =     0.00000000   -0.00024793    0.01361373
     atom    5 type  1   force =    -0.00247039    0.03000739   -0.01720415
     atom    6 type  1   force =    -0.00021471    0.00012396    0.01361373
     atom    7 type  1   force =    -0.02722236   -0.01286428   -0.01720415
     atom    8 type  1   force =     0.00000000    0.01102323    0.00064678
     atom    9 type  1   force =    -0.02475197   -0.01714311   -0.01720415
     atom   10 type  1   force =     0.00954640   -0.00551162    0.00064678
     atom   11 type  1   force =     0.00000000   -0.00000000    0.01081933
     atom   12 type  1   force =     0.00021471    0.00012396    0.01361373
     atom   13 type  1   force =     0.02722236   -0.01286428   -0.01720415
     atom   14 type  1   force =     0.12341310   -0.07125258    0.04695004
     atom   15 type  1   force =     0.00000000   -0.00000000    0.00601018
     atom   16 type  1   force =    -0.00954640   -0.00551162    0.00064678
     atom   17 type  1   force =     0.00247039    0.03000739   -0.01720415
     atom   18 type  1   force =     0.00000000    0.14250517    0.04695004
     atom   19 type  2   force =     0.00000000   -0.00000000   -0.07074715
     The ionic contribution  to forces
     atom    1 type  1   force =     0.00000000   -0.00000000   -0.26436165
     atom    2 type  1   force =    -0.28924371   -0.16699493   -1.35343220
     atom    3 type  1   force =     0.24444526    0.19239957   -0.07305631
     atom    4 type  1   force =     0.00000000    0.02135779   -0.06570055
     atom    5 type  1   force =     0.28884554    0.11549602   -0.07305631
     atom    6 type  1   force =     0.01849639   -0.01067889   -0.06570055
     atom    7 type  1   force =     0.04440028   -0.30789559   -0.07305631
     atom    8 type  1   force =     0.00000000    0.02385272    0.01591659
     atom    9 type  1   force =    -0.24444526    0.19239957   -0.07305631
     atom   10 type  1   force =     0.02065706   -0.01192636    0.01591659
     atom   11 type  1   force =    -0.00000000    0.00000000   -0.03164940
     atom   12 type  1   force =    -0.01849639   -0.01067889   -0.06570055
     atom   13 type  1   force =    -0.04440028   -0.30789559   -0.07305631
     atom   14 type  1   force =     0.28924371   -0.16699493   -1.35343220
     atom   15 type  1   force =     0.00000000    0.00000000   -0.05461980
     atom   16 type  1   force =    -0.02065706   -0.01192636    0.01591659
     atom   17 type  1   force =    -0.28884554    0.11549602   -0.07305631
     atom   18 type  1   force =     0.00000000    0.33398987   -1.35343220
     atom   19 type  2   force =     0.00000000   -0.00000000    4.99861719
     The local contribution  to forces
     atom    1 type  1   force =    -0.00000000    0.00000000    0.12704068
     atom    2 type  1   force =     0.38614666    0.22294188    1.29758254
     atom    3 type  1   force =    -0.26188966   -0.18873839    0.08078490
     atom    4 type  1   force =    -0.00000000   -0.00762052    0.05381499
     atom    5 type  1   force =    -0.29439707   -0.13243390    0.08078490
     atom    6 type  1   force =    -0.00659957    0.00381026    0.05381499
     atom    7 type  1   force =    -0.03250741    0.32117229    0.08078490
     atom    8 type  1   force =    -0.00000000   -0.02405684   -0.01741511
     atom    9 type  1   force =     0.26188966   -0.18873839    0.08078490
     atom   10 type  1   force =    -0.02083384    0.01202842   -0.01741511
     atom   11 type  1   force =     0.00000000    0.00000000    0.02603757
     atom   12 type  1   force =     0.00659957    0.00381026    0.05381499
     atom   13 type  1   force =     0.03250741    0.32117229    0.08078490
     atom   14 type  1   force =    -0.38614666    0.22294188    1.29758254
     atom   15 type  1   force =    -0.00000000    0.00000000    0.04947728
     atom   16 type  1   force =     0.02083384    0.01202842   -0.01741511
     atom   17 type  1   force =     0.29439707   -0.13243390    0.08078490
     atom   18 type  1   force =    -0.00000000   -0.44588375    1.29758254
     atom   19 type  2   force =    -0.00000000   -0.00000000   -4.87978626
     The core correction contribution to forces
     atom    1 type  1   force =     0.00000000    0.00000000    0.00064943
     atom    2 type  1   force =     0.00346252    0.00199908    0.00000662
     atom    3 type  1   force =    -0.00095711   -0.00025614    0.00018329
     atom    4 type  1   force =     0.00000000    0.00018097   -0.00023892
     atom    5 type  1   force =    -0.00070038   -0.00070081    0.00018329
     atom    6 type  1   force =     0.00015673   -0.00009049   -0.00023892
     atom    7 type  1   force =     0.00025673    0.00095696    0.00018329
     atom    8 type  1   force =    -0.00000000   -0.00049739   -0.00005455
     atom    9 type  1   force =     0.00095711   -0.00025614    0.00018329
     atom   10 type  1   force =    -0.00043075    0.00024870   -0.00005455
     atom   11 type  1   force =    -0.00000000   -0.00000000   -0.00018996
     atom   12 type  1   force =    -0.00015673   -0.00009049   -0.00023892
     atom   13 type  1   force =    -0.00025673    0.00095696    0.00018329
     atom   14 type  1   force =    -0.00346252    0.00199908    0.00000662
     atom   15 type  1   force =     0.00000000   -0.00000000   -0.00007985
     atom   16 type  1   force =     0.00043075    0.00024870   -0.00005455
     atom   17 type  1   force =     0.00070038   -0.00070081    0.00018329
     atom   18 type  1   force =     0.00000000   -0.00399817    0.00000662
     atom   19 type  2   force =     0.00000000    0.00000000    0.00000000
     The Hubbard contrib.    to forces
     atom    1 type  1   force =     0.00000000    0.00000000    0.00000000
     atom    2 type  1   force =     0.00000000    0.00000000    0.00000000
     atom    3 type  1   force =     0.00000000    0.00000000    0.00000000
     atom    4 type  1   force =     0.00000000    0.00000000    0.00000000
     atom    5 type  1   force =     0.00000000    0.00000000    0.00000000
     atom    6 type  1   force =     0.00000000    0.00000000    0.00000000
     atom    7 type  1   force =     0.00000000    0.00000000    0.00000000
     atom    8 type  1   force =     0.00000000    0.00000000    0.00000000
     atom    9 type  1   force =     0.00000000    0.00000000    0.00000000
     atom   10 type  1   force =     0.00000000    0.00000000    0.00000000
     atom   11 type  1   force =     0.00000000    0.00000000    0.00000000
     atom   12 type  1   force =     0.00000000    0.00000000    0.00000000
     atom   13 type  1   force =     0.00000000    0.00000000    0.00000000
     atom   14 type  1   force =     0.00000000    0.00000000    0.00000000
     atom   15 type  1   force =     0.00000000    0.00000000    0.00000000
     atom   16 type  1   force =     0.00000000    0.00000000    0.00000000
     atom   17 type  1   force =     0.00000000    0.00000000    0.00000000
     atom   18 type  1   force =     0.00000000    0.00000000    0.00000000
     atom   19 type  2   force =     0.00000000    0.00000000    0.00000000
     The SCF correction term to forces
     atom    1 type  1   force =    -0.00000000   -0.00000000   -0.00006104
     atom    2 type  1   force =    -0.00014133   -0.00008160   -0.00000525
     atom    3 type  1   force =     0.00007710   -0.00001464   -0.00000887
     atom    4 type  1   force =    -0.00000000   -0.00004573   -0.00002073
     atom    5 type  1   force =     0.00002588    0.00007409   -0.00000887
     atom    6 type  1   force =    -0.00003960    0.00002286   -0.00002073
     atom    7 type  1   force =    -0.00005123   -0.00005946   -0.00000887
     atom    8 type  1   force =     0.00000000   -0.00005089   -0.00001595
     atom    9 type  1   force =    -0.00007710   -0.00001464   -0.00000887
     atom   10 type  1   force =    -0.00004407    0.00002544   -0.00001595
     atom   11 type  1   force =    -0.00000000    0.00000000   -0.00004106
     atom   12 type  1   force =     0.00003960    0.00002286   -0.00002073
     atom   13 type  1   force =     0.00005123   -0.00005946   -0.00000887
     atom   14 type  1   force =     0.00014133   -0.00008160   -0.00000525
     atom   15 type  1   force =     0.00000000   -0.00000000   -0.00002904
     atom   16 type  1   force =     0.00004407    0.00002544   -0.00001595
     atom   17 type  1   force =    -0.00002588    0.00007409   -0.00000887
     atom   18 type  1   force =     0.00000000    0.00016320   -0.00000525
     atom   19 type  2   force =     0.00000000   -0.00000000   -0.00005038

     Total force =     0.090770     Total SCF correction =     0.000377
     Energy error            =      1.4E-02 Ry
     Gradient error          =      4.8E-02 Ry/Bohr

     number of scf cycles    =   3
     number of bfgs steps    =   2

     energy             old  =    -332.9944968097 Ry
     energy             new  =    -333.0086055955 Ry

     CASE: energy            _new < energy            _old

     new trust radius        =       0.0817219193 bohr
     new conv_thr            =       0.0000004803 Ry


ATOMIC_POSITIONS (angstrom)
C             0.0000000000        0.0000000000        0.1048393139
C             1.2692576887        0.7328062683       -0.0605143849
C            -1.2416167994        2.1371481406       -0.0091994877
C             0.0000000000        2.8421064895        0.0013333918
C            -2.4599838183        4.2474217195       -0.0091994877
C            -1.2286635799        4.9702142352        0.0013333918
C             2.4716329812        0.0066976197       -0.0091994877
C             3.6900000000        0.7178808664        0.0022041152
C             1.2416167994        2.1371481406       -0.0091994877
C             2.4667030672        2.8366933068        0.0022041152
C             0.0000000000        4.2608449866        0.0049299113
C             1.2286635799        4.9702142352        0.0013333918
C             4.9083670188        0.0066976197       -0.0091994877
C             6.1107423113        0.7328062683       -0.0605143849
C             3.6900000000        2.1304224933        0.0003319308
C             4.9132969328        2.8366933068        0.0022041152
C             2.4599838183        4.2474217195       -0.0091994877
C             3.6900000000        4.9256549434       -0.0605143849
H             0.0000000000       -0.0000000000        1.2160264042



     Writing config-only to output data dir ./graphene_h_over_c.save/
     NEW-OLD atomic charge density approx. for the potential

     negative rho (up, down):  5.160E-05 0.000E+00

     total cpu time spent up to now is       59.5 secs

     Self-consistent Calculation

     iteration #  1     ecut=    60.00 Ry     beta= 0.70
     Davidson diagonalization with overlap
     ethr =  1.00E-06,  avg # of iterations =  9.3

     negative rho (up, down):  5.090E-05 0.000E+00

     total cpu time spent up to now is       62.2 secs

     total energy              =    -333.01560133 Ry
     estimated scf accuracy    <       0.00137818 Ry

     iteration #  2     ecut=    60.00 Ry     beta= 0.70
     Davidson diagonalization with overlap
     ethr =  1.89E-06,  avg # of iterations =  3.3

     negative rho (up, down):  5.535E-05 0.000E+00

     total cpu time spent up to now is       63.9 secs

     total energy              =    -333.01583335 Ry
     estimated scf accuracy    <       0.00053189 Ry

     iteration #  3     ecut=    60.00 Ry     beta= 0.70
     Davidson diagonalization with overlap
     ethr =  7.29E-07,  avg # of iterations =  2.3

     negative rho (up, down):  5.211E-05 0.000E+00

     total cpu time spent up to now is       65.5 secs

     total energy              =    -333.01594684 Ry
     estimated scf accuracy    <       0.00005546 Ry

     iteration #  4     ecut=    60.00 Ry     beta= 0.70
     Davidson diagonalization with overlap
     ethr =  7.60E-08,  avg # of iterations =  3.3

     negative rho (up, down):  5.134E-05 0.000E+00

     total cpu time spent up to now is       67.2 secs

     total energy              =    -333.01596027 Ry
     estimated scf accuracy    <       0.00002701 Ry

     iteration #  5     ecut=    60.00 Ry     beta= 0.70
     Davidson diagonalization with overlap
     ethr =  3.70E-08,  avg # of iterations =  2.3

     negative rho (up, down):  5.113E-05 0.000E+00

     total cpu time spent up to now is       68.7 secs

     total energy              =    -333.01596538 Ry
     estimated scf accuracy    <       0.00000052 Ry

     iteration #  6     ecut=    60.00 Ry     beta= 0.70
     Davidson diagonalization with overlap
     ethr =  7.09E-10,  avg # of iterations =  5.0

     negative rho (up, down):  5.110E-05 0.000E+00

     total cpu time spent up to now is       70.6 secs

     End of self-consistent calculation

          k = 0.0000 0.0000 0.0000 ( 37425 PWs)   bands (ev):

   -21.2013 -18.8176 -18.6292 -18.6292 -18.5418 -18.4846 -18.4846 -14.4195
   -14.2258 -14.1703 -14.1703 -12.1607 -12.1607 -11.6152 -11.3114 -11.3114
   -11.1781 -11.1024 -11.1024  -9.6956  -8.0056  -7.4377  -7.4176  -7.4176
    -7.3604  -7.2598  -7.2598  -6.2706  -6.2706  -6.1877  -6.1691  -6.1691
    -4.5503  -4.5503  -3.0331  -1.5730  -1.5730  -1.5182   0.7108   1.7723
     2.3029   2.7434   3.3563   3.3563

          k = 0.0000 0.3849 0.0000 ( 37488 PWs)   bands (ev):

   -20.9115 -20.0358 -19.2065 -19.1281 -17.5288 -17.4431 -16.6857 -15.9357
   -15.8646 -14.0281 -13.4724 -13.3768 -12.5982 -12.4998 -10.7812 -10.7526
   -10.0856  -9.7303  -9.3816  -8.6203  -8.6177  -8.3021  -8.2388  -7.9214
    -7.7097  -7.6567  -7.3426  -6.9022  -6.2832  -5.7641  -5.6652  -5.2120
    -4.9408  -4.5512  -3.7996  -3.3663  -1.1705   0.1778   0.5042   1.2285
     1.7954   1.8321   2.6329   2.8514

          k = 0.3333 0.5774 0.0000 ( 37407 PWs)   bands (ev):

   -20.4248 -20.3198 -20.2244 -17.8575 -17.7897 -17.6361 -15.8209 -15.7145
   -15.7093 -14.8071 -14.6437 -14.5957 -11.5203 -11.3304 -11.1432  -9.8829
    -9.8007  -9.6422  -9.5169  -8.8873  -8.8652  -8.8304  -8.2295  -8.1698
    -7.3544  -7.2160  -7.1935  -6.4490  -6.3769  -6.2484  -6.2312  -5.3017
    -5.1862  -4.2714  -3.7171  -3.6645  -1.2843   0.0187   0.1001   1.2947
     2.4297   2.4354   2.4587   2.7022

     the Fermi energy is    -1.2674 ev

!    total energy              =    -333.01596562 Ry
     total all-electron energy =     -1372.769711 Ry
     estimated scf accuracy    <       0.00000014 Ry
     smearing contrib. (-TS)   =      -0.00298434 Ry
     internal energy E=F+TS    =    -333.01298127 Ry

     The total energy is F=E-TS. E is the sum of the following terms:
     one-electron contribution =   -1447.16239459 Ry
     hartree contribution      =     738.82439670 Ry
     xc contribution           =     -84.43375866 Ry
     ewald contribution        =     570.76821964 Ry
     one-center paw contrib.   =    -111.00944437 Ry

     convergence has been achieved in   6 iterations

     negative rho (up, down):  5.110E-05 0.000E+00

     Forces acting on atoms (cartesian axes, Ry/au):

     atom    1 type  1   force =     0.00000000   -0.00000000    0.02256838
     atom    2 type  1   force =    -0.00086734   -0.00050076    0.00265835
     atom    3 type  1   force =     0.00777834   -0.01365600   -0.00938624
     atom    4 type  1   force =     0.00000000   -0.00107451    0.00016694
     atom    5 type  1   force =    -0.00793728    0.01356424   -0.00938624
     atom    6 type  1   force =    -0.00093055    0.00053726    0.00016694
     atom    7 type  1   force =    -0.01571561    0.00009176   -0.00938624
     atom    8 type  1   force =     0.00000000   -0.00449399   -0.00432000
     atom    9 type  1   force =    -0.00777834   -0.01365600   -0.00938624
     atom   10 type  1   force =    -0.00389191    0.00224699   -0.00432000
     atom   11 type  1   force =     0.00000000   -0.00000000    0.00609175
     atom   12 type  1   force =     0.00093055    0.00053726    0.00016694
     atom   13 type  1   force =     0.01571561    0.00009176   -0.00938624
     atom   14 type  1   force =     0.00086734   -0.00050076    0.00265835
     atom   15 type  1   force =     0.00000000   -0.00000000    0.00083921
     atom   16 type  1   force =     0.00389191    0.00224699   -0.00432000
     atom   17 type  1   force =     0.00793728    0.01356424   -0.00938624
     atom   18 type  1   force =     0.00000000    0.00100152    0.00265835
     atom   19 type  2   force =     0.00000000   -0.00000000    0.03130224
     The non-local contrib.  to forces
     atom    1 type  1   force =     0.00000000   -0.00000000    0.13662800
     atom    2 type  1   force =    -0.09149050   -0.05282207    0.05799763
     atom    3 type  1   force =     0.02562444   -0.01314646   -0.01997596
     atom    4 type  1   force =     0.00000000   -0.01410987    0.01178215
     atom    5 type  1   force =     0.00142705    0.02876465   -0.01997596
     atom    6 type  1   force =    -0.01221950    0.00705493    0.01178215
     atom    7 type  1   force =    -0.02419739   -0.01561819   -0.01997596
     atom    8 type  1   force =     0.00000000   -0.00563740   -0.00265682
     atom    9 type  1   force =    -0.02562444   -0.01314646   -0.01997596
     atom   10 type  1   force =    -0.00488213    0.00281870   -0.00265682
     atom   11 type  1   force =     0.00000000   -0.00000000    0.01367767
     atom   12 type  1   force =     0.01221950    0.00705493    0.01178215
     atom   13 type  1   force =     0.02419739   -0.01561819   -0.01997596
     atom   14 type  1   force =     0.09149050   -0.05282207    0.05799763
     atom   15 type  1   force =     0.00000000   -0.00000000    0.00676080
     atom   16 type  1   force =     0.00488213    0.00281870   -0.00265682
     atom   17 type  1   force =    -0.00142705    0.02876465   -0.01997596
     atom   18 type  1   force =     0.00000000    0.10564413    0.05799763
     atom   19 type  2   force =     0.00000000    0.00000000   -0.06869269
     The ionic contribution  to forces
     atom    1 type  1   force =     0.00000000   -0.00000000    0.45736657
     atom    2 type  1   force =    -0.22067789   -0.12740844   -1.62497692
     atom    3 type  1   force =     0.21514793    0.19333429   -0.14159943
     atom    4 type  1   force =    -0.00000000   -0.02583241   -0.00169314
     atom    5 type  1   force =     0.27500637    0.08965642   -0.14159943
     atom    6 type  1   force =    -0.02237152    0.01291621   -0.00169314
     atom    7 type  1   force =     0.05985845   -0.28299072   -0.14159943
     atom    8 type  1   force =    -0.00000000   -0.04873439    0.07376087
     atom    9 type  1   force =    -0.21514793    0.19333429   -0.14159943
     atom   10 type  1   force =    -0.04220522    0.02436719    0.07376087
     atom   11 type  1   force =    -0.00000000    0.00000000    0.05092806
     atom   12 type  1   force =     0.02237152    0.01291621   -0.00169314
     atom   13 type  1   force =    -0.05985845   -0.28299072   -0.14159943
     atom   14 type  1   force =     0.22067789   -0.12740844   -1.62497692
     atom   15 type  1   force =     0.00000000    0.00000000   -0.01087384
     atom   16 type  1   force =     0.04220522    0.02436719    0.07376087
     atom   17 type  1   force =    -0.27500637    0.08965642   -0.14159943
     atom   18 type  1   force =     0.00000000    0.25481688   -1.62497692
     atom   19 type  2   force =     0.00000000   -0.00000000    5.01090334
     The local contribution  to forces
     atom    1 type  1   force =     0.00000000    0.00000000   -0.57201706
     atom    2 type  1   force =     0.30832994    0.17801437    1.56944090
     atom    3 type  1   force =    -0.23186821   -0.19365634    0.15175966
     atom    4 type  1   force =    -0.00000000    0.03818167   -0.00983679
     atom    5 type  1   force =    -0.28364542   -0.10397558    0.15175966
     atom    6 type  1   force =     0.03306630   -0.01909084   -0.00983679
     atom    7 type  1   force =    -0.05177721    0.29763193    0.15175966
     atom    8 type  1   force =    -0.00000000    0.04965887   -0.07553941
     atom    9 type  1   force =     0.23186821   -0.19365634    0.15175966
     atom   10 type  1   force =     0.04300584   -0.02482943   -0.07553941
     atom   11 type  1   force =    -0.00000000    0.00000000   -0.05840215
     atom   12 type  1   force =    -0.03306630   -0.01909084   -0.00983679
     atom   13 type  1   force =     0.05177721    0.29763193    0.15175966
     atom   14 type  1   force =    -0.30832994    0.17801437    1.56944090
     atom   15 type  1   force =    -0.00000000    0.00000000    0.00489502
     atom   16 type  1   force =    -0.04300584   -0.02482943   -0.07553941
     atom   17 type  1   force =     0.28364542   -0.10397558    0.15175966
     atom   18 type  1   force =     0.00000000   -0.35602874    1.56944090
     atom   19 type  2   force =     0.00000000    0.00000000   -4.91098263
     The core correction contribution to forces
     atom    1 type  1   force =    -0.00000000    0.00000000    0.00037288
     atom    2 type  1   force =     0.00277100    0.00159984    0.00000560
     atom    3 type  1   force =    -0.00090943   -0.00027544    0.00024938
     atom    4 type  1   force =    -0.00000000    0.00055779   -0.00025220
     atom    5 type  1   force =    -0.00069326   -0.00064987    0.00024938
     atom    6 type  1   force =     0.00048306   -0.00027889   -0.00025220
     atom    7 type  1   force =     0.00021618    0.00092531    0.00024938
     atom    8 type  1   force =     0.00000000   -0.00001514   -0.00005523
     atom    9 type  1   force =     0.00090943   -0.00027544    0.00024938
     atom   10 type  1   force =    -0.00001311    0.00000757   -0.00005523
     atom   11 type  1   force =     0.00000000   -0.00000000   -0.00026080
     atom   12 type  1   force =    -0.00048306   -0.00027889   -0.00025220
     atom   13 type  1   force =    -0.00021618    0.00092531    0.00024938
     atom   14 type  1   force =    -0.00277100    0.00159984    0.00000560
     atom   15 type  1   force =     0.00000000   -0.00000000   -0.00010266
     atom   16 type  1   force =     0.00001311    0.00000757   -0.00005523
     atom   17 type  1   force =     0.00069326   -0.00064987    0.00024938
     atom   18 type  1   force =    -0.00000000   -0.00319968    0.00000560
     atom   19 type  2   force =     0.00000000    0.00000000    0.00000000
     The Hubbard contrib.    to forces
     atom    1 type  1   force =     0.00000000    0.00000000    0.00000000
     atom    2 type  1   force =     0.00000000    0.00000000    0.00000000
     atom    3 type  1   force =     0.00000000    0.00000000    0.00000000
     atom    4 type  1   force =     0.00000000    0.00000000    0.00000000
     atom    5 type  1   force =     0.00000000    0.00000000    0.00000000
     atom    6 type  1   force =     0.00000000    0.00000000    0.00000000
     atom    7 type  1   force =     0.00000000    0.00000000    0.00000000
     atom    8 type  1   force =     0.00000000    0.00000000    0.00000000
     atom    9 type  1   force =     0.00000000    0.00000000    0.00000000
     atom   10 type  1   force =     0.00000000    0.00000000    0.00000000
     atom   11 type  1   force =     0.00000000    0.00000000    0.00000000
     atom   12 type  1   force =     0.00000000    0.00000000    0.00000000
     atom   13 type  1   force =     0.00000000    0.00000000    0.00000000
     atom   14 type  1   force =     0.00000000    0.00000000    0.00000000
     atom   15 type  1   force =     0.00000000    0.00000000    0.00000000
     atom   16 type  1   force =     0.00000000    0.00000000    0.00000000
     atom   17 type  1   force =     0.00000000    0.00000000    0.00000000
     atom   18 type  1   force =     0.00000000    0.00000000    0.00000000
     atom   19 type  2   force =     0.00000000    0.00000000    0.00000000
     The SCF correction term to forces
     atom    1 type  1   force =     0.00000000   -0.00000000    0.00021260
     atom    2 type  1   force =     0.00020011    0.00011553    0.00018575
     atom    3 type  1   force =    -0.00021639    0.00008795    0.00017472
     atom    4 type  1   force =    -0.00000000    0.00012830    0.00016152
     atom    5 type  1   force =    -0.00003203   -0.00023138    0.00017472
     atom    6 type  1   force =     0.00011111   -0.00006415    0.00016152
     atom    7 type  1   force =     0.00018436    0.00014343    0.00017472
     atom    8 type  1   force =     0.00000000    0.00023407    0.00016519
     atom    9 type  1   force =     0.00021639    0.00008795    0.00017472
     atom   10 type  1   force =     0.00020271   -0.00011704    0.00016519
     atom   11 type  1   force =     0.00000000    0.00000000    0.00014357
     atom   12 type  1   force =    -0.00011111   -0.00006415    0.00016152
     atom   13 type  1   force =    -0.00018436    0.00014343    0.00017472
     atom   14 type  1   force =    -0.00020011    0.00011553    0.00018575
     atom   15 type  1   force =    -0.00000000    0.00000000    0.00015450
     atom   16 type  1   force =    -0.00020271   -0.00011704    0.00016519
     atom   17 type  1   force =     0.00003203   -0.00023138    0.00017472
     atom   18 type  1   force =    -0.00000000   -0.00023107    0.00018575
     atom   19 type  2   force =     0.00000000   -0.00000000    0.00006884

     Total force =     0.060678     Total SCF correction =     0.001115
     Energy error            =      7.4E-03 Ry
     Gradient error          =      3.1E-02 Ry/Bohr

     number of scf cycles    =   4
     number of bfgs steps    =   3

     energy             old  =    -333.0086055955 Ry
     energy             new  =    -333.0159656154 Ry

     CASE: energy            _new < energy            _old

     new trust radius        =       0.1304757660 bohr
     new conv_thr            =       0.0000003130 Ry


ATOMIC_POSITIONS (angstrom)
C             0.0000000000        0.0000000000        0.1592582527
C             1.2598789002        0.7273914222       -0.0745039951
C            -1.2383916194        2.1310799607       -0.0228677018
C             0.0000000000        2.8399463227        0.0021951836
C            -2.4636264262        4.2532488973       -0.0228677018
C            -1.2305343392        4.9712943186        0.0021951836
C             2.4647651932        0.0069386219       -0.0228677018
C             3.6900000000        0.7155456925       -0.0016187994
C             1.2383916194        2.1310799607       -0.0228677018
C             2.4646807473        2.8378608937       -0.0016187994
C             0.0000000000        4.2608449866        0.0132838835
C             1.2305343392        4.9712943186        0.0021951836
C             4.9152348068        0.0069386219       -0.0228677018
C             6.1201210998        0.7273914222       -0.0745039951
C             3.6900000000        2.1304224933        0.0013757015
C             4.9153192527        2.8378608937       -0.0016187994
C             2.4636264262        4.2532488973       -0.0228677018
C             3.6900000000        4.9364846355       -0.0745039951
H             0.0000000000       -0.0000000000        1.2850712061



     Writing config-only to output data dir ./graphene_h_over_c.save/
     NEW-OLD atomic charge density approx. for the potential

     negative rho (up, down):  4.900E-05 0.000E+00

     total cpu time spent up to now is       76.4 secs

     Self-consistent Calculation

     iteration #  1     ecut=    60.00 Ry     beta= 0.70
     Davidson diagonalization with overlap
     ethr =  1.00E-06,  avg # of iterations =  7.3

     negative rho (up, down):  4.800E-05 0.000E+00

     total cpu time spent up to now is       79.1 secs

     total energy              =    -333.02078464 Ry
     estimated scf accuracy    <       0.00368545 Ry

     iteration #  2     ecut=    60.00 Ry     beta= 0.70
     Davidson diagonalization with overlap
     ethr =  5.05E-06,  avg # of iterations =  3.0

     negative rho (up, down):  6.348E-05 0.000E+00

     total cpu time spent up to now is       80.7 secs

     total energy              =    -333.02109418 Ry
     estimated scf accuracy    <       0.00300785 Ry

     iteration #  3     ecut=    60.00 Ry     beta= 0.70
     Davidson diagonalization with overlap
     ethr =  4.12E-06,  avg # of iterations =  2.3

     negative rho (up, down):  5.358E-05 0.000E+00

     total cpu time spent up to now is       82.3 secs

     total energy              =    -333.02183363 Ry
     estimated scf accuracy    <       0.00039265 Ry

     iteration #  4     ecut=    60.00 Ry     beta= 0.70
     Davidson diagonalization with overlap
     ethr =  5.38E-07,  avg # of iterations =  2.0

     negative rho (up, down):  4.873E-05 0.000E+00

     total cpu time spent up to now is       83.8 secs

     total energy              =    -333.02191016 Ry
     estimated scf accuracy    <       0.00000862 Ry

     iteration #  5     ecut=    60.00 Ry     beta= 0.70
     Davidson diagonalization with overlap
     ethr =  1.18E-08,  avg # of iterations =  4.3

     negative rho (up, down):  4.859E-05 0.000E+00

     total cpu time spent up to now is       85.5 secs

     total energy              =    -333.02191347 Ry
     estimated scf accuracy    <       0.00000273 Ry

     iteration #  6     ecut=    60.00 Ry     beta= 0.70
     Davidson diagonalization with overlap
     ethr =  3.74E-09,  avg # of iterations =  3.0

     negative rho (up, down):  4.860E-05 0.000E+00

     total cpu time spent up to now is       87.1 secs

     total energy              =    -333.02191397 Ry
     estimated scf accuracy    <       0.00000057 Ry

     iteration #  7     ecut=    60.00 Ry     beta= 0.70
     Davidson diagonalization with overlap
     ethr =  7.80E-10,  avg # of iterations =  2.3

     negative rho (up, down):  4.862E-05 0.000E+00

     total cpu time spent up to now is       88.7 secs

     End of self-consistent calculation

          k = 0.0000 0.0000 0.0000 ( 37425 PWs)   bands (ev):

   -21.1862 -18.7635 -18.6117 -18.6117 -18.5280 -18.4926 -18.4926 -14.3904
   -14.2184 -14.1640 -14.1640 -12.1469 -12.1469 -11.5890 -11.2884 -11.2884
   -11.1922 -11.1014 -11.1014  -9.6842  -8.0489  -7.4545  -7.4055  -7.4055
    -7.3351  -7.2997  -7.2997  -6.2171  -6.2171  -6.1854  -6.1785  -6.1785
    -4.5343  -4.5343  -3.1674  -1.5715  -1.5715  -1.5284   0.5994   1.7559
     2.2907   2.7557   3.3251   3.3251

          k = 0.0000 0.3849 0.0000 ( 37488 PWs)   bands (ev):

   -20.8957 -20.0197 -19.1815 -19.1223 -17.5043 -17.4388 -16.6713 -15.9168
   -15.8600 -14.0108 -13.4645 -13.3643 -12.5879 -12.4874 -10.7726 -10.7409
   -10.0926  -9.7193  -9.3700  -8.6342  -8.6130  -8.2887  -8.2305  -7.9200
    -7.7161  -7.6465  -7.3392  -6.9043  -6.2642  -5.8209  -5.6501  -5.2318
    -4.9004  -4.5557  -3.8120  -3.3621  -1.3103   0.1617   0.4788   1.1831
     1.7672   1.8500   2.6180   2.8559

          k = 0.3333 0.5774 0.0000 ( 37407 PWs)   bands (ev):

   -20.4037 -20.2985 -20.2211 -17.8095 -17.7773 -17.6532 -15.7949 -15.7136
   -15.6917 -14.7802 -14.6263 -14.6064 -11.5250 -11.2918 -11.1515  -9.8842
    -9.7684  -9.6580  -9.5175  -8.8669  -8.8543  -8.8431  -8.2046  -8.1714
    -7.3401  -7.2236  -7.1645  -6.4954  -6.3869  -6.2661  -6.2360  -5.2431
    -5.1988  -4.3002  -3.7175  -3.6549  -1.4090   0.0154   0.0543   1.2059
     2.4063   2.4214   2.5111   2.6927

     the Fermi energy is    -1.3889 ev

!    total energy              =    -333.02191409 Ry
     total all-electron energy =     -1372.775660 Ry
     estimated scf accuracy    <       0.00000006 Ry
     smearing contrib. (-TS)   =      -0.00442443 Ry
     internal energy E=F+TS    =    -333.01748966 Ry

     The total energy is F=E-TS. E is the sum of the following terms:
     one-electron contribution =   -1445.34040201 Ry
     hartree contribution      =     737.90057028 Ry
     xc contribution           =     -84.39290285 Ry
     ewald contribution        =     569.82385643 Ry
     one-center paw contrib.   =    -111.00861151 Ry

     convergence has been achieved in   7 iterations

     negative rho (up, down):  4.862E-05 0.000E+00

     Forces acting on atoms (cartesian axes, Ry/au):

     atom    1 type  1   force =     0.00000000   -0.00000000    0.01372703
[...]
C             3.6900000000        0.7138942841       -0.1082971649
C             1.2360862642        2.1265849444       -0.0489038276
C             2.4632505857        2.8386865979       -0.1082971649
C             0.0000000000        4.2608449866       -0.0231432383
C             1.2297426293        4.9708372247       -0.0189751377
C             4.9202802827        0.0071896339       -0.0489038276
C             6.1234080498        0.7254937007        0.0191934877
C             3.6900000000        2.1304224933       -0.1212118018
C             4.9167494143        2.8386865979       -0.1082971649
C             2.4663665469        4.2574929016       -0.0489038276
C             3.6900000000        4.9402800785        0.0191934877
H             0.0000000000       -0.0000000000        1.4951885454



     Writing config-only to output data dir ./graphene_h_over_c.save/
     NEW-OLD atomic charge density approx. for the potential

     negative rho (up, down):  4.901E-05 0.000E+00

     total cpu time spent up to now is      216.6 secs

     Self-consistent Calculation

     iteration #  1     ecut=    60.00 Ry     beta= 0.70
     Davidson diagonalization with overlap
     ethr =  1.00E-06,  avg # of iterations =  3.0

     Threshold (ethr) on eigenvalues was too large:
     Diagonalizing with lowered threshold

     Davidson diagonalization with overlap
     ethr =  1.56E-08,  avg # of iterations =  3.0

     negative rho (up, down):  4.889E-05 0.000E+00

     total cpu time spent up to now is      219.5 secs

     total energy              =    -333.03494644 Ry
     estimated scf accuracy    <       0.00001581 Ry

     iteration #  2     ecut=    60.00 Ry     beta= 0.70
     Davidson diagonalization with overlap
     ethr =  2.17E-08,  avg # of iterations =  3.0

     negative rho (up, down):  4.901E-05 0.000E+00

     total cpu time spent up to now is      221.2 secs

     total energy              =    -333.03494716 Ry
     estimated scf accuracy    <       0.00002423 Ry

     iteration #  3     ecut=    60.00 Ry     beta= 0.70
     Davidson diagonalization with overlap
     ethr =  2.17E-08,  avg # of iterations =  2.0

     negative rho (up, down):  4.894E-05 0.000E+00

     total cpu time spent up to now is      222.8 secs

     total energy              =    -333.03495216 Ry
     estimated scf accuracy    <       0.00000094 Ry

     iteration #  4     ecut=    60.00 Ry     beta= 0.70
     Davidson diagonalization with overlap
     ethr =  1.29E-09,  avg # of iterations =  2.7

     negative rho (up, down):  4.892E-05 0.000E+00

     total cpu time spent up to now is      224.3 secs

     total energy              =    -333.03495238 Ry
     estimated scf accuracy    <       0.00000011 Ry

     iteration #  5     ecut=    60.00 Ry     beta= 0.70
     Davidson diagonalization with overlap
     ethr =  1.57E-10,  avg # of iterations =  3.0

     negative rho (up, down):  4.891E-05 0.000E+00

     total cpu time spent up to now is      225.8 secs

     End of self-consistent calculation

          k = 0.0000 0.0000 0.0000 ( 37425 PWs)   bands (ev):

   -21.1387 -18.5929 -18.5929 -18.5800 -18.5386 -18.4868 -18.4868 -14.3815
   -14.2210 -14.1398 -14.1398 -12.1142 -12.1142 -11.6321 -11.2820 -11.2820
   -11.2160 -11.0436 -11.0436  -9.5545  -8.0605  -7.4747  -7.4035  -7.4035
    -7.3220  -7.3138  -7.3138  -6.2217  -6.2217  -6.2025  -6.0908  -6.0908
    -4.5634  -4.5634  -3.4446  -1.5379  -1.5253  -1.5253   0.6238   1.6245
     2.2881   2.7323   3.2753   3.2753

          k = 0.0000 0.3849 0.0000 ( 37488 PWs)   bands (ev):

   -20.8467 -19.9750 -19.1191 -19.1089 -17.4461 -17.4286 -16.6459 -15.8762
   -15.8527 -13.9920 -13.4637 -13.3352 -12.5941 -12.4520 -10.7515 -10.7231
   -10.0830  -9.6956  -9.2872  -8.6515  -8.6108  -8.2691  -8.2066  -7.9212
    -7.7233  -7.6005  -7.3744  -6.8512  -6.2832  -5.8431  -5.7244  -5.2343
    -4.8844  -4.5533  -3.8083  -3.3364  -1.4900   0.1788   0.5031   1.1893
     1.7715   1.8411   2.6278   2.9495

          k = 0.3333 0.5774 0.0000 ( 37407 PWs)   bands (ev):

   -20.2972 -20.2726 -20.2222 -17.7585 -17.7283 -17.6486 -15.7490 -15.6964
   -15.6934 -14.7734 -14.5841 -14.5687 -11.5703 -11.2817 -11.1148  -9.8991
    -9.7570  -9.6069  -9.4224  -8.8441  -8.8279  -8.8183  -8.2115  -8.1239
    -7.3701  -7.3313  -7.1059  -6.4799  -6.4237  -6.2986  -6.2745  -5.1827
    -5.1724  -4.3669  -3.6541  -3.6401  -1.5653   0.0603   0.0714   1.1950
     2.3739   2.4190   2.5129   2.6941

     the Fermi energy is    -1.5143 ev

!    total energy              =    -333.03495240 Ry
     total all-electron energy =     -1372.788698 Ry
     estimated scf accuracy    <       0.00000001 Ry
     smearing contrib. (-TS)   =      -0.00665740 Ry
     internal energy E=F+TS    =    -333.02829500 Ry

     The total energy is F=E-TS. E is the sum of the following terms:
     one-electron contribution =   -1439.14380929 Ry
     hartree contribution      =     734.78713166 Ry
     xc contribution           =     -84.31453723 Ry
     ewald contribution        =     566.64931741 Ry
     one-center paw contrib.   =    -111.00639754 Ry

     convergence has been achieved in   5 iterations

     negative rho (up, down):  4.891E-05 0.000E+00

     Forces acting on atoms (cartesian axes, Ry/au):

     atom    1 type  1   force =     0.00000000    0.00000000    0.00006681
     atom    2 type  1   force =    -0.00006536   -0.00003773   -0.00016676
     atom    3 type  1   force =     0.00021259   -0.00029312   -0.00020755
     atom    4 type  1   force =    -0.00000000    0.00012568    0.00039318
     atom    5 type  1   force =    -0.00014755    0.00033067   -0.00020755
     atom    6 type  1   force =     0.00010884   -0.00006284    0.00039318
     atom    7 type  1   force =    -0.00036014   -0.00003755   -0.00020755
     atom    8 type  1   force =     0.00000000   -0.00002075    0.00008778
     atom    9 type  1   force =    -0.00021259   -0.00029312   -0.00020755
     atom   10 type  1   force =    -0.00001797    0.00001037    0.00008778
     atom   11 type  1   force =     0.00000000    0.00000000    0.00018224
     atom   12 type  1   force =    -0.00010884   -0.00006284    0.00039318
     atom   13 type  1   force =     0.00036014   -0.00003755   -0.00020755
     atom   14 type  1   force =     0.00006536   -0.00003773   -0.00016676
     atom   15 type  1   force =     0.00000000   -0.00000000   -0.00017769
     atom   16 type  1   force =     0.00001797    0.00001037    0.00008778
     atom   17 type  1   force =     0.00014755    0.00033067   -0.00020755
     atom   18 type  1   force =     0.00000000    0.00007547   -0.00016676
     atom   19 type  2   force =     0.00000000   -0.00000000    0.00023131
     The non-local contrib.  to forces
     atom    1 type  1   force =     0.00000000    0.00000000    0.01759618
     atom    2 type  1   force =    -0.06211634   -0.03586288    0.02614448
     atom    3 type  1   force =     0.00939908    0.01662351   -0.00945561
     atom    4 type  1   force =     0.00000000   -0.01001014   -0.00687663
     atom    5 type  1   force =     0.01909592   -0.00017191   -0.00945561
     atom    6 type  1   force =    -0.00866903    0.00500507   -0.00687663
     atom    7 type  1   force =     0.00969684   -0.01645160   -0.00945561
     atom    8 type  1   force =     0.00000000   -0.00488115   -0.00300605
     atom    9 type  1   force =    -0.00939908    0.01662351   -0.00945561
     atom   10 type  1   force =    -0.00422720    0.00244057   -0.00300605
     atom   11 type  1   force =     0.00000000   -0.00000000    0.01306212
     atom   12 type  1   force =     0.00866903    0.00500507   -0.00687663
     atom   13 type  1   force =    -0.00969684   -0.01645160   -0.00945561
     atom   14 type  1   force =     0.06211634   -0.03586288    0.02614448
     atom   15 type  1   force =     0.00000000   -0.00000000   -0.02621890
     atom   16 type  1   force =     0.00422720    0.00244057   -0.00300605
     atom   17 type  1   force =    -0.01909592   -0.00017191   -0.00945561
     atom   18 type  1   force =    -0.00000000    0.07172577    0.02614448
     atom   19 type  2   force =     0.00000000    0.00000000   -0.06675174
     The ionic contribution  to forces
     atom    1 type  1   force =     0.00000000   -0.00000000    4.37961827
     atom    2 type  1   force =    -0.36215542   -0.20909053   -0.39563960
     atom    3 type  1   force =     0.12459793    0.21101035   -0.61235853
     atom    4 type  1   force =     0.00000000    0.02561350    0.04087753
     atom    5 type  1   force =     0.24503929    0.00239980   -0.61235853
     atom    6 type  1   force =     0.02218195   -0.01280675    0.04087753
     atom    7 type  1   force =     0.12044136   -0.21341015   -0.61235853
     atom    8 type  1   force =    -0.00000000   -0.09979389   -1.21222738
     atom    9 type  1   force =    -0.12459793    0.21101035   -0.61235853
     atom   10 type  1   force =    -0.08642404    0.04989694   -1.21222738
     atom   11 type  1   force =    -0.00000000    0.00000000   -0.05666375
     atom   12 type  1   force =    -0.02218195   -0.01280675    0.04087753
     atom   13 type  1   force =    -0.12044136   -0.21341015   -0.61235853
     atom   14 type  1   force =     0.36215542   -0.20909053   -0.39563960
     atom   15 type  1   force =     0.00000000    0.00000000   -1.12279318
     atom   16 type  1   force =     0.08642404    0.04989694   -1.21222738
     atom   17 type  1   force =    -0.24503929    0.00239980   -0.61235853
     atom   18 type  1   force =     0.00000000    0.41818105   -0.39563960
     atom   19 type  2   force =    -0.00000000   -0.00000000    5.17495822
     The local contribution  to forces
     atom    1 type  1   force =    -0.00000000    0.00000000   -4.39759258
     atom    2 type  1   force =     0.42150592    0.24335655    0.36935296
     atom    3 type  1   force =    -0.13331198   -0.22711290    0.62120292
     atom    4 type  1   force =     0.00000000   -0.01589739   -0.03347984
     atom    5 type  1   force =    -0.26334153   -0.00189511    0.62120292
     atom    6 type  1   force =    -0.01376754    0.00794869   -0.03347984
     atom    7 type  1   force =    -0.13002955    0.22900801    0.62120292
     atom    8 type  1   force =     0.00000000    0.10442169    1.21484146
     atom    9 type  1   force =     0.13331198   -0.22711290    0.62120292
     atom   10 type  1   force =     0.09043183   -0.05221084    1.21484146
     atom   11 type  1   force =    -0.00000000    0.00000000    0.04405816
     atom   12 type  1   force =     0.01376754    0.00794869   -0.03347984
     atom   13 type  1   force =     0.13002955    0.22900801    0.62120292
     atom   14 type  1   force =    -0.42150592    0.24335655    0.36935296
     atom   15 type  1   force =     0.00000000    0.00000000    1.14814103
     atom   16 type  1   force =    -0.09043183   -0.05221084    1.21484146
     atom   17 type  1   force =     0.26334153   -0.00189511    0.62120292
     atom   18 type  1   force =     0.00000000   -0.48671311    0.36935296
     atom   19 type  2   force =     0.00000000   -0.00000000   -5.10795397
     The core correction contribution to forces
     atom    1 type  1   force =     0.00000000   -0.00000000    0.00048931
     atom    2 type  1   force =     0.00271297    0.00156633   -0.00000530
     atom    3 type  1   force =    -0.00042671   -0.00085354    0.00042642
     atom    4 type  1   force =    -0.00000000    0.00038331   -0.00009983
     atom    5 type  1   force =    -0.00095255    0.00005723    0.00042642
     atom    6 type  1   force =     0.00033195   -0.00019165   -0.00009983
     atom    7 type  1   force =    -0.00052583    0.00079632    0.00042642
     atom    8 type  1   force =     0.00000000    0.00019233    0.00049754
     atom    9 type  1   force =     0.00042671   -0.00085354    0.00042642
     atom   10 type  1   force =     0.00016657   -0.00009617    0.00049754
     atom   11 type  1   force =     0.00000000   -0.00000000   -0.00024361
     atom   12 type  1   force =    -0.00033195   -0.00019165   -0.00009983
     atom   13 type  1   force =     0.00052583    0.00079632    0.00042642
     atom   14 type  1   force =    -0.00271297    0.00156633   -0.00000530
     atom   15 type  1   force =    -0.00000000   -0.00000000    0.00070522
     atom   16 type  1   force =    -0.00016657   -0.00009617    0.00049754
     atom   17 type  1   force =     0.00095255    0.00005723    0.00042642
     atom   18 type  1   force =    -0.00000000   -0.00313267   -0.00000530
     atom   19 type  2   force =     0.00000000    0.00000000    0.00000000
     The Hubbard contrib.    to forces
     atom    1 type  1   force =     0.00000000    0.00000000    0.00000000
     atom    2 type  1   force =     0.00000000    0.00000000    0.00000000
     atom    3 type  1   force =     0.00000000    0.00000000    0.00000000
     atom    4 type  1   force =     0.00000000    0.00000000    0.00000000
     atom    5 type  1   force =     0.00000000    0.00000000    0.00000000
     atom    6 type  1   force =     0.00000000    0.00000000    0.00000000
     atom    7 type  1   force =     0.00000000    0.00000000    0.00000000
     atom    8 type  1   force =     0.00000000    0.00000000    0.00000000
     atom    9 type  1   force =     0.00000000    0.00000000    0.00000000
     atom   10 type  1   force =     0.00000000    0.00000000    0.00000000
     atom   11 type  1   force =     0.00000000    0.00000000    0.00000000
     atom   12 type  1   force =     0.00000000    0.00000000    0.00000000
     atom   13 type  1   force =     0.00000000    0.00000000    0.00000000
     atom   14 type  1   force =     0.00000000    0.00000000    0.00000000
     atom   15 type  1   force =     0.00000000    0.00000000    0.00000000
     atom   16 type  1   force =     0.00000000    0.00000000    0.00000000
     atom   17 type  1   force =     0.00000000    0.00000000    0.00000000
     atom   18 type  1   force =     0.00000000    0.00000000    0.00000000
     atom   19 type  2   force =     0.00000000    0.00000000    0.00000000
     The SCF correction term to forces
     atom    1 type  1   force =    -0.00000000   -0.00000000   -0.00003397
     atom    2 type  1   force =    -0.00001249   -0.00000721   -0.00000890
     atom    3 type  1   force =    -0.00004573    0.00003947   -0.00001234
     atom    4 type  1   force =    -0.00000000    0.00003639   -0.00001766
     atom    5 type  1   force =     0.00001132   -0.00005933   -0.00001234
     atom    6 type  1   force =     0.00003151   -0.00001820   -0.00001766
     atom    7 type  1   force =     0.00005704    0.00001987   -0.00001234
     atom    8 type  1   force =     0.00000000    0.00004026   -0.00000739
     atom    9 type  1   force =     0.00004573    0.00003947   -0.00001234
     atom   10 type  1   force =     0.00003487   -0.00002013   -0.00000739
     atom   11 type  1   force =    -0.00000000    0.00000000   -0.00002028
     atom   12 type  1   force =    -0.00003151   -0.00001820   -0.00001766
     atom   13 type  1   force =    -0.00005704    0.00001987   -0.00001234
     atom   14 type  1   force =     0.00001249   -0.00000721   -0.00000890
     atom   15 type  1   force =     0.00000000    0.00000000   -0.00000147
     atom   16 type  1   force =    -0.00003487   -0.00002013   -0.00000739
     atom   17 type  1   force =    -0.00001132   -0.00005933   -0.00001234
     atom   18 type  1   force =     0.00000000    0.00001442   -0.00000890
     atom   19 type  2   force =    -0.00000000   -0.00000000   -0.00001080

     Total force =     0.001343     Total SCF correction =     0.000188
     SCF correction compared to forces is large: reduce conv_thr to get better values
     Energy error            =      3.2E-05 Ry
     Gradient error          =      3.9E-04 Ry/Bohr

     bfgs converged in  13 scf cycles and  12 bfgs steps
     (criteria: energy <  1.0E-04 Ry, force <  1.0E-03 Ry/Bohr)

     End of BFGS Geometry Optimization

     Final energy             =    -333.0349524013 Ry

     File ./graphene_h_over_c.bfgs deleted, as requested
Begin final coordinates

ATOMIC_POSITIONS (angstrom)
C             0.0000000000       -0.0000000000        0.3668259055
C             1.2565919502        0.7254937007        0.0191934877
C            -1.2360862642        2.1265849444       -0.0489038276
C             0.0000000000        2.8408605105       -0.0189751377
C            -2.4663665469        4.2574929016       -0.0489038276
C            -1.2297426293        4.9708372247       -0.0189751377
C             2.4597197173        0.0071896339       -0.0489038276
C             3.6900000000        0.7138942841       -0.1082971649
C             1.2360862642        2.1265849444       -0.0489038276
C             2.4632505857        2.8386865979       -0.1082971649
C             0.0000000000        4.2608449866       -0.0231432383
C             1.2297426293        4.9708372247       -0.0189751377
C             4.9202802827        0.0071896339       -0.0489038276
C             6.1234080498        0.7254937007        0.0191934877
C             3.6900000000        2.1304224933       -0.1212118018
C             4.9167494143        2.8386865979       -0.1082971649
C             2.4663665469        4.2574929016       -0.0489038276
C             3.6900000000        4.9402800785        0.0191934877
H             0.0000000000       -0.0000000000        1.4951885454
End final coordinates



     Writing all to output data dir ./graphene_h_over_c.save/

     init_run     :      3.65s CPU      4.36s WALL (       1 calls)
     electrons    :    145.58s CPU    160.17s WALL (      13 calls)
     update_pot   :     30.15s CPU     30.37s WALL (      12 calls)
     forces       :     27.15s CPU     27.73s WALL (      13 calls)

     Called by init_run:
     wfcinit      :      0.48s CPU      0.60s WALL (       1 calls)
     potinit      :      1.15s CPU      1.41s WALL (       1 calls)
     hinit0       :      1.36s CPU      1.61s WALL (       1 calls)

     Called by electrons:
     c_bands      :     84.87s CPU     85.91s WALL (      85 calls)
     sum_band     :     26.65s CPU     28.14s WALL (      85 calls)
     v_of_rho     :     19.38s CPU     19.55s WALL (      97 calls)
     newd         :      9.81s CPU     11.00s WALL (      97 calls)
     PAW_pot      :      6.04s CPU      6.15s WALL (     109 calls)
     mix_rho      :      1.78s CPU      1.81s WALL (      85 calls)

     Called by c_bands:
     init_us_2    :      1.53s CPU      1.54s WALL (     588 calls)
     init_us_2:cp :      1.52s CPU      1.54s WALL (     588 calls)
     cegterg      :     81.69s CPU     82.69s WALL (     255 calls)

     Called by *egterg:
     cdiaghg      :      2.90s CPU      3.01s WALL (    1162 calls)
     h_psi        :     62.76s CPU     63.62s WALL (    1204 calls)
     s_psi        :      3.62s CPU      3.65s WALL (    1204 calls)
     g_psi        :      0.31s CPU      0.31s WALL (     946 calls)

     Called by h_psi:
     h_psi:calbec :      3.81s CPU      3.88s WALL (    1204 calls)
     vloc_psi     :     54.81s CPU     55.57s WALL (    1204 calls)
     add_vuspsi   :      3.54s CPU      3.57s WALL (    1204 calls)

     General routines
     calbec       :      5.64s CPU      5.72s WALL (    1651 calls)
     fft          :     10.49s CPU     10.88s WALL (    1391 calls)
     ffts         :      0.18s CPU      0.21s WALL (     182 calls)
     fftw         :     32.56s CPU     32.89s WALL (   78798 calls)
     interpolate  :      0.95s CPU      1.00s WALL (      97 calls)

     Parallel routines

     PWSCF        :   3m29.46s CPU   3m51.91s WALL


   This run was terminated on:  12:32:39  24Jan2025            

=------------------------------------------------------------------------------=
   JOB DONE.
=------------------------------------------------------------------------------=
