
     Program PWSCF v.7.2 starts on 18Jun2025 at 10:58:38 

     This program is part of the open-source Quantum ESPRESSO suite
     for quantum simulation of materials; please cite
         "P. Giannozzi et al., J. Phys.:Condens. Matter 21 395502 (2009);
         "P. Giannozzi et al., J. Phys.:Condens. Matter 29 465901 (2017);
         "P. Giannozzi et al., J. Chem. Phys. 152 154105 (2020);
          URL http://www.quantum-espresso.org", 
     in publications or presentations arising from this work. More details at
     http://www.quantum-espresso.org/quote

     Parallel version (MPI), running on    20 processors

     MPI processes distributed on     1 nodes
     242777 MiB available memory on the printing compute node when the environment starts

     Reading input from pw1.in
Warning: card &CELL ignored
Warning: card / ignored
Warning: card &FCP ignored
Warning: card / ignored
Warning: card &RISM ignored
Warning: card / ignored

     Current dimensions of program PWSCF are:
     Max number of different atomic species (ntypx) = 10
     Max number of k-points (npk) =  40000
     Max angular momentum in pseudopotentials (lmaxx) =  4
     file N.pbe-n-kjpaw_psl.1.0.0.UPF: wavefunction(s)  2S renormalized
     file C.pbe-n-kjpaw_psl.1.0.0.UPF: wavefunction(s)  2S 2P renormalized
     file H.pbe-kjpaw_psl.1.0.0.UPF: wavefunction(s)  1S renormalized
     file Cl.pbe-n-kjpaw_psl.1.0.0.UPF: wavefunction(s)  3S 3P renormalized

     R & G space division:  proc/nbgrp/npool/nimage =      20
     Subspace diagonalization in iterative solution of the eigenvalue problem:
     a serial algorithm will be used


     Parallelization info
     --------------------
     sticks:   dense  smooth     PW     G-vecs:    dense   smooth      PW
     Min        3411    1364    340               669939   169462   21182
     Max        3413    1365    341               669940   169465   21187
     Sum       68237   27281   6817             13398795  3389267  423701

     Using Slab Decomposition



     bravais-lattice index     =            0
     lattice parameter (alat)  =      37.7945  a.u.
     unit-cell volume          =   53986.6760 (a.u.)^3
     number of atoms/cell      =           20
     number of atomic types    =            4
     number of electrons       =        52.00
     number of Kohn-Sham states=           31
     kinetic-energy cutoff     =      60.0000  Ry
     charge density cutoff     =     600.0000  Ry
     scf convergence threshold =      1.0E-06
     mixing beta               =       0.7000
     number of iterations used =            8  plain     mixing
     energy convergence thresh.=      1.0E-04
     force convergence thresh. =      1.0E-03
     Exchange-correlation= SLA  PW   PBX  PBC
                           (   1   4   3   4   0   0   0)
     nstep                     =           50


     celldm(1)=  37.794522  celldm(2)=   0.000000  celldm(3)=   0.000000
     celldm(4)=   0.000000  celldm(5)=   0.000000  celldm(6)=   0.000000

     crystal axes: (cart. coord. in units of alat)
               a(1) = (   1.000000   0.000000   0.000000 )  
               a(2) = (   0.000000   1.000000   0.000000 )  
               a(3) = (   0.000000   0.000000   1.000000 )  

     reciprocal axes: (cart. coord. in units 2 pi/alat)
               b(1) = (  1.000000  0.000000  0.000000 )  
               b(2) = (  0.000000  1.000000  0.000000 )  
               b(3) = (  0.000000  0.000000  1.000000 )  


     PseudoPot. # 1 for N  read from file:
     /home/ebarquero/practicas/pseudo/N.pbe-n-kjpaw_psl.1.0.0.UPF
     MD5 check sum: 14c48229446f9f2d411169a3abcbc3fa
     Pseudo is Projector augmented-wave + core cor, Zval =  5.0
     Generated using &quot;atomic&quot; code by A. Dal Corso  v.6.3
     Shape of augmentation charge: PSQ
     Using radial grid of 1085 points,  4 beta functions with: 
                l(1) =   0
                l(2) =   0
                l(3) =   1
                l(4) =   1
     Q(r) pseudized with 0 coefficients 


     PseudoPot. # 2 for C  read from file:
     /home/ebarquero/practicas/pseudo/C.pbe-n-kjpaw_psl.1.0.0.UPF
     MD5 check sum: 5f16ad9a65e90284d1d834d4ab3b0f7d
     Pseudo is Projector augmented-wave + core cor, Zval =  4.0
     Generated using &quot;atomic&quot; code by A. Dal Corso  v.6.3
     Shape of augmentation charge: PSQ
     Using radial grid of 1073 points,  4 beta functions with: 
                l(1) =   0
                l(2) =   0
                l(3) =   1
                l(4) =   1
     Q(r) pseudized with 0 coefficients 


     PseudoPot. # 3 for H  read from file:
     /home/ebarquero/practicas/pseudo/H.pbe-kjpaw_psl.1.0.0.UPF
     MD5 check sum: d81a744832360e4a8af0b0b5b123bc2a
     Pseudo is Projector augmented-wave, Zval =  1.0
     Generated using &quot;atomic&quot; code by A. Dal Corso  v.6.3MaX
     Shape of augmentation charge: PSQ
     Using radial grid of  929 points,  2 beta functions with: 
                l(1) =   0
                l(2) =   0
     Q(r) pseudized with 0 coefficients 


     PseudoPot. # 4 for Cl read from file:
     /home/ebarquero/practicas/pseudo/Cl.pbe-n-kjpaw_psl.1.0.0.UPF
     MD5 check sum: 530da96d25dcb7781b0586ca00827062
     Pseudo is Projector augmented-wave + core cor, Zval =  7.0
     Generated using &quot;atomic&quot; code by A. Dal Corso  v.6.3
     Shape of augmentation charge: PSQ
     Using radial grid of 1157 points,  6 beta functions with: 
                l(1) =   0
                l(2) =   0
                l(3) =   1
                l(4) =   1
                l(5) =   2
                l(6) =   2
     Q(r) pseudized with 0 coefficients 


     atomic species   valence    mass     pseudopotential
        N              5.00    14.00700     N ( 1.00)
        C              4.00    12.01100     C ( 1.00)
        H              1.00     1.00800     H ( 1.00)
        Cl             7.00    35.45000     Cl( 1.00)

     No symmetry found



   Cartesian axes

     site n.     atom                  positions (alat units)
         1           N   tau(   1) = (   0.4784350   0.4983700   0.4822825  )
         2           N   tau(   2) = (   0.5840800   0.4834250   0.4981975  )
         3           C   tau(   3) = (   0.4086850   0.4849100   0.4683775  )
         4           C   tau(   4) = (   0.5267500   0.4522000   0.4838175  )
         5           C   tau(   5) = (   0.5053200   0.5601200   0.4958775  )
         6           C   tau(   6) = (   0.5722200   0.5506600   0.5059525  )
         7           C   tau(   7) = (   0.3692350   0.4695750   0.5314475  )
         8           C   tau(   8) = (   0.6484800   0.4509850   0.5045475  )
         9           H   tau(   9) = (   0.3870500   0.5281950   0.4426725  )
        10           H   tau(  10) = (   0.4058600   0.4424850   0.4338175  )
        11           H   tau(  11) = (   0.5205200   0.3993350   0.4751075  )
        12           H   tau(  12) = (   0.4726500   0.6026750   0.4965575  )
        13           H   tau(  13) = (   0.6136500   0.5826400   0.5177475  )
        14           H   tau(  14) = (   0.3900550   0.4260000   0.5572075  )
        15           H   tau(  15) = (   0.3169150   0.4591950   0.5193225  )
        16           H   tau(  16) = (   0.3709150   0.5118400   0.5661825  )
        17           H   tau(  17) = (   0.6434600   0.3973250   0.4954175  )
        18           H   tau(  18) = (   0.6830850   0.4722900   0.4679675  )
        19           H   tau(  19) = (   0.6677300   0.4589100   0.5551025  )
        20           Cl  tau(  20) = (   0.5312575   0.2340350   0.4902400  )

     number of k points=     1  Methfessel-Paxton smearing, width (Ry)=  0.0200
                       cart. coord. in units 2pi/alat
        k(    1) = (   0.0000000   0.0000000   0.0000000), wk =   2.0000000

     Dense  grid: 13398795 G-vectors     FFT dimensions: ( 300, 300, 300)

     Smooth grid:  3389267 G-vectors     FFT dimensions: ( 192, 192, 192)

     Estimated max dynamical RAM per process >       2.64 GB

     Estimated total dynamical RAM >      52.81 GB

     Initial potential from superposition of free atoms

     starting charge      51.9996, renormalised to      52.0000

     negative rho (up, down):  4.956E-04 0.000E+00
     Starting wfcs are   47 randomized atomic wfcs
     Checking if some PAW data can be deallocated... 

     total cpu time spent up to now is       28.0 secs

     Self-consistent Calculation

     iteration #  1     ecut=    60.00 Ry     beta= 0.70
     Davidson diagonalization with overlap
     ethr =  1.00E-02,  avg # of iterations =  4.0

     negative rho (up, down):  7.068E-04 0.000E+00

     total cpu time spent up to now is       54.6 secs

     total energy              =    -258.91165114 Ry
     estimated scf accuracy    <       1.93800076 Ry

     iteration #  2     ecut=    60.00 Ry     beta= 0.70
     Davidson diagonalization with overlap
     ethr =  3.73E-03,  avg # of iterations =  3.0

     negative rho (up, down):  1.572E-03 0.000E+00

     total cpu time spent up to now is       80.8 secs

     total energy              =    -258.19128049 Ry
     estimated scf accuracy    <       2.97522970 Ry

     iteration #  3     ecut=    60.00 Ry     beta= 0.70
     Davidson diagonalization with overlap
     ethr =  3.73E-03,  avg # of iterations =  5.0

     negative rho (up, down):  8.513E-04 0.000E+00

     total cpu time spent up to now is      106.6 secs

     total energy              =    -259.39446783 Ry
     estimated scf accuracy    <       0.90852273 Ry

     iteration #  4     ecut=    60.00 Ry     beta= 0.70
     Davidson diagonalization with overlap
     ethr =  1.75E-03,  avg # of iterations =  2.0

     negative rho (up, down):  9.505E-04 0.000E+00

     total cpu time spent up to now is      132.1 secs

     total energy              =    -259.38569723 Ry
     estimated scf accuracy    <       0.24792788 Ry

     iteration #  5     ecut=    60.00 Ry     beta= 0.70
     Davidson diagonalization with overlap
     ethr =  4.77E-04,  avg # of iterations =  2.0

     negative rho (up, down):  9.464E-04 0.000E+00

     total cpu time spent up to now is      157.7 secs

     total energy              =    -259.36882017 Ry
     estimated scf accuracy    <       0.10671556 Ry

     iteration #  6     ecut=    60.00 Ry     beta= 0.70
     Davidson diagonalization with overlap
     ethr =  2.05E-04,  avg # of iterations = 14.0

     negative rho (up, down):  8.989E-04 0.000E+00

     total cpu time spent up to now is      184.1 secs

     total energy              =    -259.35270165 Ry
     estimated scf accuracy    <       0.04451931 Ry

     iteration #  7     ecut=    60.00 Ry     beta= 0.70
     Davidson diagonalization with overlap
     ethr =  8.56E-05,  avg # of iterations =  4.0

     negative rho (up, down):  9.538E-04 0.000E+00

     total cpu time spent up to now is      209.9 secs

     total energy              =    -259.34212638 Ry
     estimated scf accuracy    <       0.02089132 Ry

     iteration #  8     ecut=    60.00 Ry     beta= 0.70
     Davidson diagonalization with overlap
     ethr =  4.02E-05,  avg # of iterations = 16.0

     negative rho (up, down):  2.002E-03 0.000E+00

     total cpu time spent up to now is      237.3 secs

     total energy              =    -259.15698861 Ry
     estimated scf accuracy    <       4.33194059 Ry

     iteration #  9     ecut=    60.00 Ry     beta= 0.70
     Davidson diagonalization with overlap
     ethr =  4.02E-05,  avg # of iterations =  5.0

     negative rho (up, down):  9.525E-04 0.000E+00

     total cpu time spent up to now is      263.4 secs

     total energy              =    -259.35600678 Ry
     estimated scf accuracy    <       0.01587318 Ry

     iteration # 10     ecut=    60.00 Ry     beta= 0.70
     Davidson diagonalization with overlap
     ethr =  3.05E-05,  avg # of iterations =  1.0

     negative rho (up, down):  8.429E-04 0.000E+00

     total cpu time spent up to now is      288.7 secs

     total energy              =    -259.35377346 Ry
     estimated scf accuracy    <       0.01727199 Ry

     iteration # 11     ecut=    60.00 Ry     beta= 0.70
     Davidson diagonalization with overlap
     ethr =  3.05E-05,  avg # of iterations =  1.0
     Minimization algorithm failed to find Fermi energy: reverting to bisection
     Possible cause: smearing is larger than the electronic band-gap.

     negative rho (up, down):  8.419E-04 0.000E+00

     total cpu time spent up to now is      314.1 secs

     total energy              =    -259.35245886 Ry
     estimated scf accuracy    <       0.00903203 Ry

     iteration # 12     ecut=    60.00 Ry     beta= 0.70
     Davidson diagonalization with overlap
     ethr =  1.74E-05,  avg # of iterations =  1.0
     Minimization algorithm failed to find Fermi energy: reverting to bisection
     Possible cause: smearing is larger than the electronic band-gap.

     negative rho (up, down):  8.438E-04 0.000E+00

     total cpu time spent up to now is      339.4 secs

     total energy              =    -259.35291263 Ry
     estimated scf accuracy    <       0.00876694 Ry

     iteration # 13     ecut=    60.00 Ry     beta= 0.70
     Davidson diagonalization with overlap
     ethr =  1.69E-05,  avg # of iterations =  1.0
     Minimization algorithm failed to find Fermi energy: reverting to bisection
     Possible cause: smearing is larger than the electronic band-gap.

     negative rho (up, down):  8.443E-04 0.000E+00

     total cpu time spent up to now is      364.7 secs

     total energy              =    -259.35371490 Ry
     estimated scf accuracy    <       0.00743009 Ry

     iteration # 14     ecut=    60.00 Ry     beta= 0.70
     Davidson diagonalization with overlap
     ethr =  1.43E-05,  avg # of iterations =  1.0

     negative rho (up, down):  8.509E-04 0.000E+00

     total cpu time spent up to now is      390.0 secs

     total energy              =    -259.35531714 Ry
     estimated scf accuracy    <       0.01742206 Ry

     iteration # 15     ecut=    60.00 Ry     beta= 0.70
     Davidson diagonalization with overlap
     ethr =  1.43E-05,  avg # of iterations =  1.0

     negative rho (up, down):  8.513E-04 0.000E+00

     total cpu time spent up to now is      415.4 secs

     WARNING: integrated charge=    52.00087074, expected=    52.00000000

     total energy              =    -259.35562587 Ry
     estimated scf accuracy    <       0.01415332 Ry

     iteration # 16     ecut=    60.00 Ry     beta= 0.70
     Davidson diagonalization with overlap
     ethr =  1.43E-05,  avg # of iterations =  1.0
     Minimization algorithm failed to find Fermi energy: reverting to bisection
     Possible cause: smearing is larger than the electronic band-gap.

     negative rho (up, down):  8.483E-04 0.000E+00

     total cpu time spent up to now is      440.9 secs

     WARNING: integrated charge=    52.00042770, expected=    52.00000000

     total energy              =    -259.35310217 Ry
     estimated scf accuracy    <       0.00705713 Ry

     iteration # 17     ecut=    60.00 Ry     beta= 0.70
     Davidson diagonalization with overlap
     ethr =  1.36E-05,  avg # of iterations =  1.0
     Minimization algorithm failed to find Fermi energy: reverting to bisection
     Possible cause: smearing is larger than the electronic band-gap.

     negative rho (up, down):  8.644E-04 0.000E+00

     total cpu time spent up to now is      466.5 secs

     WARNING: integrated charge=    51.99491825, expected=    52.00000000

     total energy              =    -259.35417549 Ry
     estimated scf accuracy    <       0.00692854 Ry

     iteration # 18     ecut=    60.00 Ry     beta= 0.70
     Davidson diagonalization with overlap
     ethr =  1.33E-05,  avg # of iterations =  2.0

     negative rho (up, down):  8.714E-04 0.000E+00

     total cpu time spent up to now is      492.2 secs

     WARNING: integrated charge=    51.99524612, expected=    52.00000000

     total energy              =    -259.35701821 Ry
     estimated scf accuracy    <       0.01970456 Ry

     iteration # 19     ecut=    60.00 Ry     beta= 0.70
     Davidson diagonalization with overlap
     ethr =  1.33E-05,  avg # of iterations =  1.0

     negative rho (up, down):  8.732E-04 0.000E+00

     total cpu time spent up to now is      517.8 secs

     WARNING: integrated charge=    51.99410778, expected=    52.00000000

     total energy              =    -259.35595737 Ry
     estimated scf accuracy    <       0.02060036 Ry

     iteration # 20     ecut=    60.00 Ry     beta= 0.70
     Davidson diagonalization with overlap
     ethr =  1.33E-05,  avg # of iterations =  2.0
     Minimization algorithm failed to find Fermi energy: reverting to bisection
     Possible cause: smearing is larger than the electronic band-gap.

     negative rho (up, down):  8.494E-04 0.000E+00

     total cpu time spent up to now is      543.2 secs

     WARNING: integrated charge=    51.99287021, expected=    52.00000000

     total energy              =    -259.35064626 Ry
     estimated scf accuracy    <       0.01797031 Ry

     iteration # 21     ecut=    60.00 Ry     beta= 0.70
     Davidson diagonalization with overlap
     ethr =  1.33E-05,  avg # of iterations =  2.0

     negative rho (up, down):  8.471E-04 0.000E+00

     total cpu time spent up to now is      568.6 secs

     WARNING: integrated charge=    51.99408401, expected=    52.00000000

     total energy              =    -259.35068747 Ry
     estimated scf accuracy    <       0.00779014 Ry

     iteration # 22     ecut=    60.00 Ry     beta= 0.70
     Davidson diagonalization with overlap
     ethr =  1.33E-05,  avg # of iterations =  1.0

     negative rho (up, down):  8.439E-04 0.000E+00

     total cpu time spent up to now is      593.9 secs

     WARNING: integrated charge=    51.99473526, expected=    52.00000000

     total energy              =    -259.35097546 Ry
     estimated scf accuracy    <       0.00303960 Ry

     iteration # 23     ecut=    60.00 Ry     beta= 0.70
     Davidson diagonalization with overlap
     ethr =  5.85E-06,  avg # of iterations =  1.0

     negative rho (up, down):  8.451E-04 0.000E+00

     total cpu time spent up to now is      619.1 secs

     WARNING: integrated charge=    51.99479526, expected=    52.00000000

     total energy              =    -259.35069444 Ry
     estimated scf accuracy    <       0.00766132 Ry

     iteration # 24     ecut=    60.00 Ry     beta= 0.70
     Davidson diagonalization with overlap
     ethr =  5.85E-06,  avg # of iterations =  1.0

     negative rho (up, down):  8.423E-04 0.000E+00

     total cpu time spent up to now is      644.7 secs

     WARNING: integrated charge=    51.99842046, expected=    52.00000000

     total energy              =    -259.35042980 Ry
     estimated scf accuracy    <       0.00305817 Ry

     iteration # 25     ecut=    60.00 Ry     beta= 0.70
     Davidson diagonalization with overlap
     ethr =  5.85E-06,  avg # of iterations =  1.0

     negative rho (up, down):  8.413E-04 0.000E+00

     total cpu time spent up to now is      670.2 secs

     WARNING: integrated charge=    51.99917765, expected=    52.00000000

     total energy              =    -259.35041982 Ry
     estimated scf accuracy    <       0.00105956 Ry

     iteration # 26     ecut=    60.00 Ry     beta= 0.70
     Davidson diagonalization with overlap
     ethr =  2.04E-06,  avg # of iterations = 16.0

     negative rho (up, down):  8.404E-04 0.000E+00

     total cpu time spent up to now is      697.0 secs

     WARNING: integrated charge=    51.99960865, expected=    52.00000000

     total energy              =    -259.35043520 Ry
     estimated scf accuracy    <       0.00021004 Ry

     iteration # 27     ecut=    60.00 Ry     beta= 0.70
     Davidson diagonalization with overlap
     ethr =  4.04E-07,  avg # of iterations =  2.0

     negative rho (up, down):  8.392E-04 0.000E+00

     total cpu time spent up to now is      722.7 secs

     WARNING: integrated charge=    51.99989701, expected=    52.00000000

     total energy              =    -259.35042065 Ry
     estimated scf accuracy    <       0.00060842 Ry

     iteration # 28     ecut=    60.00 Ry     beta= 0.70
     Davidson diagonalization with overlap
     ethr =  4.04E-07,  avg # of iterations =  1.0

     negative rho (up, down):  8.386E-04 0.000E+00

     total cpu time spent up to now is      748.2 secs

     WARNING: integrated charge=    52.00017045, expected=    52.00000000

     total energy              =    -259.35040253 Ry
     estimated scf accuracy    <       0.00016520 Ry

     iteration # 29     ecut=    60.00 Ry     beta= 0.70
     Davidson diagonalization with overlap
     ethr =  3.18E-07,  avg # of iterations =  1.0

     negative rho (up, down):  8.395E-04 0.000E+00

     total cpu time spent up to now is      773.5 secs

     WARNING: integrated charge=    52.00006917, expected=    52.00000000

     total energy              =    -259.35041660 Ry
     estimated scf accuracy    <       0.00004624 Ry

     iteration # 30     ecut=    60.00 Ry     beta= 0.70
     Davidson diagonalization with overlap
     ethr =  8.89E-08,  avg # of iterations =  1.0

     negative rho (up, down):  8.398E-04 0.000E+00

     total cpu time spent up to now is      798.7 secs

     total energy              =    -259.35041674 Ry
     estimated scf accuracy    <       0.00000776 Ry

     iteration # 31     ecut=    60.00 Ry     beta= 0.70
     Davidson diagonalization with overlap
     ethr =  1.49E-08,  avg # of iterations =  1.0

     negative rho (up, down):  8.397E-04 0.000E+00

     total cpu time spent up to now is      823.4 secs

     End of self-consistent calculation

          k = 0.0000 0.0000 0.0000 (423701 PWs)   bands (ev):

   -28.3980 -25.4102 -21.5142 -20.6493 -19.4369 -17.7853 -17.0783 -16.2705
   -15.0384 -14.7487 -13.7774 -13.2715 -13.0314 -12.8262 -12.4946 -12.1434
   -11.9021 -11.0284 -10.7446 -10.2996  -9.6969  -8.7609  -7.9401  -3.1801
    -3.1132  -3.1122  -2.6923  -2.2271  -1.2989  -0.9736  -0.5732

     the Fermi energy is    -2.9050 ev

!    total energy              =    -259.35041708 Ry
     total all-electron energy =     -1612.201135 Ry
     estimated scf accuracy    <       0.00000001 Ry
     smearing contrib. (-TS)   =       0.00396982 Ry
     internal energy E=F+TS    =    -259.35438690 Ry

     The total energy is F=E-TS. E is the sum of the following terms:
     one-electron contribution =    -769.84670461 Ry
     hartree contribution      =     389.63104626 Ry
     xc contribution           =     -57.91523125 Ry
     ewald contribution        =     277.15392431 Ry
     one-center paw contrib.   =     -98.37742161 Ry

     convergence has been achieved in  31 iterations

     negative rho (up, down):  8.397E-04 0.000E+00

     Forces acting on atoms (cartesian axes, Ry/au):

     atom    1 type  1   force =    -0.00074400    0.00174899   -0.00883066
     atom    2 type  1   force =     0.00107193   -0.01096528   -0.00062932
     atom    3 type  2   force =    -0.03390832   -0.01128124   -0.00478370
     atom    4 type  2   force =     0.00006347   -0.00719655   -0.00215357
     atom    5 type  2   force =     0.00408212   -0.00010583    0.00269379
     atom    6 type  2   force =    -0.00265236    0.00081157    0.00087083
     atom    7 type  2   force =     0.00330055   -0.00031371    0.01003126
     atom    8 type  2   force =     0.01632962   -0.00652107    0.00120097
     atom    9 type  3   force =     0.00550629    0.00442036   -0.00319583
     atom   10 type  3   force =     0.00421977   -0.00159869   -0.00263581
     atom   11 type  3   force =     0.00047142   -0.02486009   -0.00040460
     atom   12 type  3   force =     0.00208308    0.01871901    0.00254641
     atom   13 type  3   force =     0.00227123    0.01907046    0.00285057
     atom   14 type  3   force =    -0.00059147   -0.00556624    0.00054566
     atom   15 type  3   force =    -0.00255695   -0.00070103   -0.00224062
     atom   16 type  3   force =    -0.00252417    0.00460598    0.00328037
     atom   17 type  3   force =    -0.00475844   -0.00433590    0.00019335
     atom   18 type  3   force =     0.00427277    0.00099133   -0.00177073
     atom   19 type  3   force =     0.00336863   -0.00069741    0.00327523
     atom   20 type  4   force =     0.00069484    0.02377535   -0.00084359
     The non-local contrib.  to forces
     atom    1 type  1   force =     0.23637528   -0.01404000    0.03058967
     atom    2 type  1   force =    -0.20685246    0.03162346   -0.03139486
     atom    3 type  2   force =     0.41843411    0.10073380    0.11444575
     atom    4 type  2   force =     0.04886837    0.46806596    0.09140549
     atom    5 type  2   force =    -0.13866396   -0.33122370   -0.06408672
     atom    6 type  2   force =     0.05623253   -0.35838412   -0.04156769
     atom    7 type  2   force =     0.05818164    0.05557688   -0.09691235
     atom    8 type  2   force =    -0.40472869    0.26612048   -0.03754038
     atom    9 type  3   force =     0.03266828   -0.05929250    0.03682420
     atom   10 type  3   force =     0.00626252    0.06037467    0.04930455
     atom   11 type  3   force =     0.00953472    0.08434217    0.01328260
     atom   12 type  3   force =     0.05045801   -0.06631937   -0.00118137
     atom   13 type  3   force =    -0.06419054   -0.04991889   -0.01837224
     atom   14 type  3   force =    -0.02778460    0.06077204   -0.03662112
     atom   15 type  3   force =     0.07255543    0.01497264    0.01523520
     atom   16 type  3   force =    -0.00140289   -0.05677437   -0.04870430
     atom   17 type  3   force =     0.00514408    0.07878676    0.01267759
     atom   18 type  3   force =    -0.05011463   -0.02848630    0.05169371
     atom   19 type  3   force =    -0.02836910   -0.00952075   -0.07160973
     atom   20 type  4   force =     0.00198781    0.06329562   -0.00232201
     The ionic contribution  to forces
     atom    1 type  1   force =    -5.01109140    0.88619032   -2.17723754
     atom    2 type  1   force =     7.29524609   -1.32763359    0.65818732
     atom    3 type  2   force =    -6.77615722   -0.31915039   -4.23130511
     atom    4 type  2   force =    -0.15620020   -8.78544187   -1.96034371
     atom    5 type  2   force =    -2.00152235   10.58016531    0.66456873
     atom    6 type  2   force =     5.53662280    9.20730015    2.02237781
     atom    7 type  2   force =    -6.19117584   -1.21626364    3.86534078
     atom    8 type  2   force =     8.30988266   -3.13737328    0.77554854
     atom    9 type  3   force =    -2.16341209    2.29463513   -2.02885848
     atom   10 type  3   force =    -1.24118268   -2.27709631   -2.54719014
     atom   11 type  3   force =    -0.26223730   -3.47026986   -0.73513099
     atom   12 type  3   force =    -1.65872668    3.50835705    0.11096267
     atom   13 type  3   force =     2.60534070    2.76380658    0.81545904
     atom   14 type  3   force =    -0.22420893   -2.40163560    1.98900547
     atom   15 type  3   force =    -3.33998548   -0.63232165   -0.12634039
     atom   16 type  3   force =    -1.11119523    1.93277270    2.41239776
     atom   17 type  3   force =     1.12070672   -3.04835356   -0.34693312
     atom   18 type  3   force =     2.93427491    0.66792884   -1.84424904
     atom   19 type  3   force =     2.15162145   -0.02443325    2.77414812
     atom   20 type  4   force =     0.18340007   -5.20118308   -0.09040773
     The local contribution  to forces
     atom    1 type  1   force =     4.77485232   -0.87027946    2.13784089
     atom    2 type  1   force =    -7.08753822    1.28499353   -0.62746651
     atom    3 type  2   force =     6.33142321    0.20886582    4.11522877
     atom    4 type  2   force =     0.10779335    8.31402044    1.86770793
     atom    5 type  2   force =     2.13980904  -10.25176793   -0.59878239
     atom    6 type  2   force =    -5.59182125   -8.85199576   -1.97983090
     atom    7 type  2   force =     6.13749719    1.16141874   -3.76065442
     atom    8 type  2   force =    -7.89647235    2.86959987   -0.73752511
     atom    9 type  3   force =     2.13624154   -2.23092023    1.98884084
     atom   10 type  3   force =     1.23912721    2.21512586    2.49524970
     atom   11 type  3   force =     0.25317067    3.36104270    0.72144218
     atom   12 type  3   force =     1.61034747   -3.42330859   -0.10723204
     atom   13 type  3   force =    -2.53887896   -2.69481358   -0.79423362
     atom   14 type  3   force =     0.25139264    2.33530005   -1.95183656
     atom   15 type  3   force =     3.26487174    0.61665167    0.10886582
     atom   16 type  3   force =     1.11006703   -1.87139075   -2.36041316
     atom   17 type  3   force =    -1.13060372    2.96523235    0.33445238
     atom   18 type  3   force =    -2.87988747   -0.63844846    1.79078995
     atom   19 type  3   force =    -2.11988282    0.03326008   -2.69926319
     atom   20 type  4   force =    -0.18459158    5.16529070    0.09175371
     The core correction contribution to forces
     atom    1 type  1   force =    -0.00098140   -0.00005219   -0.00002570
     atom    2 type  1   force =     0.00035328    0.00010623    0.00007998
     atom    3 type  2   force =    -0.00767397   -0.00171718   -0.00315776
     atom    4 type  2   force =    -0.00037588   -0.00385420   -0.00091892
     atom    5 type  2   force =     0.00445901    0.00279323    0.00100819
     atom    6 type  2   force =    -0.00363605    0.00393821   -0.00008967
     atom    7 type  2   force =    -0.00123368   -0.00103760    0.00225334
     atom    8 type  2   force =     0.00768165   -0.00485303    0.00072956
     atom    9 type  3   force =     0.00000000    0.00000000    0.00000000
     atom   10 type  3   force =     0.00000000    0.00000000    0.00000000
     atom   11 type  3   force =     0.00000000    0.00000000    0.00000000
     atom   12 type  3   force =     0.00000000    0.00000000    0.00000000
     atom   13 type  3   force =     0.00000000    0.00000000    0.00000000
     atom   14 type  3   force =     0.00000000    0.00000000    0.00000000
     atom   15 type  3   force =     0.00000000    0.00000000    0.00000000
     atom   16 type  3   force =     0.00000000    0.00000000    0.00000000
     atom   17 type  3   force =     0.00000000    0.00000000    0.00000000
     atom   18 type  3   force =     0.00000000    0.00000000    0.00000000
     atom   19 type  3   force =     0.00000000    0.00000000    0.00000000
     atom   20 type  4   force =    -0.00010338   -0.00367366    0.00013700
     The Hubbard contrib.    to forces
     atom    1 type  1   force =     0.00000000    0.00000000    0.00000000
     atom    2 type  1   force =     0.00000000    0.00000000    0.00000000
     atom    3 type  2   force =     0.00000000    0.00000000    0.00000000
     atom    4 type  2   force =     0.00000000    0.00000000    0.00000000
     atom    5 type  2   force =     0.00000000    0.00000000    0.00000000
     atom    6 type  2   force =     0.00000000    0.00000000    0.00000000
     atom    7 type  2   force =     0.00000000    0.00000000    0.00000000
     atom    8 type  2   force =     0.00000000    0.00000000    0.00000000
     atom    9 type  3   force =     0.00000000    0.00000000    0.00000000
     atom   10 type  3   force =     0.00000000    0.00000000    0.00000000
     atom   11 type  3   force =     0.00000000    0.00000000    0.00000000
     atom   12 type  3   force =     0.00000000    0.00000000    0.00000000
     atom   13 type  3   force =     0.00000000    0.00000000    0.00000000
     atom   14 type  3   force =     0.00000000    0.00000000    0.00000000
     atom   15 type  3   force =     0.00000000    0.00000000    0.00000000
     atom   16 type  3   force =     0.00000000    0.00000000    0.00000000
     atom   17 type  3   force =     0.00000000    0.00000000    0.00000000
     atom   18 type  3   force =     0.00000000    0.00000000    0.00000000
     atom   19 type  3   force =     0.00000000    0.00000000    0.00000000
     atom   20 type  4   force =     0.00000000    0.00000000    0.00000000
     The SCF correction term to forces
     atom    1 type  1   force =     0.00009871   -0.00006770    0.00000381
     atom    2 type  1   force =    -0.00013924   -0.00005293   -0.00003347
     atom    3 type  2   force =     0.00006307   -0.00001131    0.00000644
     atom    4 type  2   force =    -0.00002465    0.00001510   -0.00000257
     atom    5 type  2   force =    -0.00000211   -0.00007076   -0.00001223
     atom    6 type  2   force =    -0.00005287   -0.00004493   -0.00001692
     atom    7 type  2   force =     0.00002876   -0.00000612    0.00000570
     atom    8 type  2   force =    -0.00003613   -0.00001312   -0.00000986
     atom    9 type  3   force =     0.00000607   -0.00000007   -0.00000060
     atom   10 type  3   force =     0.00001023   -0.00000093    0.00000187
     atom   11 type  3   force =     0.00000084    0.00002688    0.00000341
     atom   12 type  3   force =     0.00000180   -0.00000811   -0.00000105
     atom   13 type  3   force =    -0.00000245   -0.00000167   -0.00000081
     atom   14 type  3   force =     0.00000694   -0.00000075   -0.00000033
     atom   15 type  3   force =    -0.00000112   -0.00000171    0.00000054
     atom   16 type  3   force =     0.00000443    0.00000037    0.00000186
     atom   17 type  3   force =    -0.00000801    0.00000053   -0.00000171
     atom   18 type  3   force =    -0.00000253   -0.00000078   -0.00000356
     atom   19 type  3   force =    -0.00000339   -0.00000152    0.00000183
     atom   20 type  4   force =    -0.00000057    0.00004775   -0.00000277

     Total force =     0.064755     Total SCF correction =     0.000242


     Computing stress (Cartesian axis) and pressure


     negative rho (up, down):  8.397E-04 0.000E+00
          total   stress  (Ry/bohr**3)                   (kbar)     P=        0.28
   0.00000392   0.00000009   0.00000033            0.58        0.01        0.05
   0.00000009   0.00000079   0.00000061            0.01        0.12        0.09
   0.00000033   0.00000061   0.00000092            0.05        0.09        0.14


     BFGS Geometry Optimization
     Energy error            =      0.0E+00 Ry
     Gradient error          =      3.4E-02 Ry/Bohr

     number of scf cycles    =   1
     number of bfgs steps    =   0

     energy             new  =    -259.3504170776 Ry

     new trust radius        =       0.0360544658 bohr
     new conv_thr            =       0.0000010000 Ry


ATOMIC_POSITIONS (angstrom)
N             9.5683062914        9.9683255249        9.6409770140
N            11.6821672413        9.6626974215        9.9636169758
C             8.1557564893        9.6922302226        9.3650185738
C            10.5350335891        9.0401917514        9.6752103804
C            10.1085601659       11.2023439950        9.9189754917
C            11.4429964312       11.0136294664       10.1195108232
C             7.3864465745        9.3913339895       10.6342583122
C            12.9782412628        9.0162492008       10.0915855251
H             7.7439138054       10.5662391539        8.8517588389
H             8.1194330062        8.8488540092        8.6749551900
H            10.4106494637        7.9735446052        9.5019358950
H             9.4541023209       12.0634056713        9.9324975044
H            12.2742018818       11.6628916533       10.3564584571
H             7.8007870080        8.5170544729       11.1444387527
H             6.3369469193        9.1835290321       10.3852643154
H             7.4169642642       10.2392373778       11.3253858963
H            12.8666819413        7.9442055429        9.9084523183
H            13.6639610504        9.4463245909        9.3584129677
H            13.3563826004        9.1778309450       11.1037831786
Cl           10.6255176929        4.6932813733        9.8043535892



     Writing config-only to output data dir ./plusCL1.save/
     NEW-OLD atomic charge density approx. for the potential

     negative rho (up, down):  8.352E-04 0.000E+00

     total cpu time spent up to now is      910.8 secs

     Self-consistent Calculation

     iteration #  1     ecut=    60.00 Ry     beta= 0.70
     Davidson diagonalization with overlap
     ethr =  1.00E-06,  avg # of iterations =  6.0

     negative rho (up, down):  8.413E-04 0.000E+00

     total cpu time spent up to now is      939.0 secs

     total energy              =    -259.35271011 Ry
     estimated scf accuracy    <       0.00121125 Ry

     iteration #  2     ecut=    60.00 Ry     beta= 0.70
     Davidson diagonalization with overlap
     ethr =  2.33E-06,  avg # of iterations =  6.0

     negative rho (up, down):  1.291E-03 0.000E+00

     total cpu time spent up to now is      965.5 secs

     total energy              =    -259.33355197 Ry
     estimated scf accuracy    <       0.83529151 Ry

     iteration #  3     ecut=    60.00 Ry     beta= 0.70
     Davidson diagonalization with overlap
     ethr =  2.33E-06,  avg # of iterations =  3.0

     negative rho (up, down):  8.913E-04 0.000E+00

     total cpu time spent up to now is      991.5 secs

     total energy              =    -259.35344707 Ry
     estimated scf accuracy    <       0.00040231 Ry

     iteration #  4     ecut=    60.00 Ry     beta= 0.70
     Davidson diagonalization with overlap
     ethr =  7.74E-07,  avg # of iterations =  1.0

     negative rho (up, down):  8.436E-04 0.000E+00

     total cpu time spent up to now is     1016.7 secs

     total energy              =    -259.35346289 Ry
     estimated scf accuracy    <       0.00015494 Ry

     iteration #  5     ecut=    60.00 Ry     beta= 0.70
     Davidson diagonalization with overlap
     ethr =  2.98E-07,  avg # of iterations =  1.0

     negative rho (up, down):  8.387E-04 0.000E+00

     total cpu time spent up to now is     1041.8 secs

     total energy              =    -259.35346641 Ry
     estimated scf accuracy    <       0.00006338 Ry

     iteration #  6     ecut=    60.00 Ry     beta= 0.70
     Davidson diagonalization with overlap
     ethr =  1.22E-07,  avg # of iterations =  1.0

     negative rho (up, down):  8.381E-04 0.000E+00

     total cpu time spent up to now is     1066.9 secs

     total energy              =    -259.35346673 Ry
     estimated scf accuracy    <       0.00002391 Ry

     iteration #  7     ecut=    60.00 Ry     beta= 0.70
     Davidson diagonalization with overlap
     ethr =  4.60E-08,  avg # of iterations =  1.0

     negative rho (up, down):  8.382E-04 0.000E+00

     total cpu time spent up to now is     1092.1 secs

     total energy              =    -259.35346673 Ry
     estimated scf accuracy    <       0.00000875 Ry

     iteration #  8     ecut=    60.00 Ry     beta= 0.70
     Davidson diagonalization with overlap
     ethr =  1.68E-08,  avg # of iterations =  2.0

     negative rho (up, down):  8.383E-04 0.000E+00

     total cpu time spent up to now is     1117.5 secs

     total energy              =    -259.35346685 Ry
     estimated scf accuracy    <       0.00000219 Ry

     iteration #  9     ecut=    60.00 Ry     beta= 0.70
     Davidson diagonalization with overlap
     ethr =  4.21E-09,  avg # of iterations =  4.0

     negative rho (up, down):  8.385E-04 0.000E+00

     total cpu time spent up to now is     1142.6 secs

     End of self-consistent calculation

          k = 0.0000 0.0000 0.0000 (423701 PWs)   bands (ev):

   -28.3190 -25.3032 -21.4741 -20.6094 -19.4260 -17.7158 -17.0368 -16.2461
   -14.9907 -14.7386 -13.7224 -13.2105 -12.9689 -12.7683 -12.4502 -12.1061
   -11.9373 -11.0316 -10.7501 -10.3083  -9.7515  -8.7591  -7.9408  -3.1746
    -3.1045  -3.1035  -2.6784  -2.1987  -1.3036  -0.9746  -0.5923

     the Fermi energy is    -2.8952 ev

!    total energy              =    -259.35346639 Ry
     total all-electron energy =     -1612.204184 Ry
     estimated scf accuracy    <       0.00000058 Ry
     smearing contrib. (-TS)   =       0.00419485 Ry
     internal energy E=F+TS    =    -259.35766124 Ry

     The total energy is F=E-TS. E is the sum of the following terms:
     one-electron contribution =    -768.56142237 Ry
     hartree contribution      =     389.01167251 Ry
     xc contribution           =     -57.87634767 Ry
     ewald contribution        =     276.44560080 Ry
     one-center paw contrib.   =     -98.37716452 Ry

     convergence has been achieved in   9 iterations

     negative rho (up, down):  8.385E-04 0.000E+00

     Forces acting on atoms (cartesian axes, Ry/au):

     atom    1 type  1   force =    -0.00792582   -0.00638117   -0.00871169
     atom    2 type  1   force =     0.00412836   -0.00216212    0.00103721
     atom    3 type  2   force =    -0.00520340    0.00015108    0.00266541
     atom    4 type  2   force =    -0.00421488   -0.01125881   -0.00438170
     atom    5 type  2   force =    -0.00978747    0.00708924   -0.00010106
     atom    6 type  2   force =     0.01227613   -0.00104268    0.00346477
     atom    7 type  2   force =    -0.00764576   -0.00219670    0.00445025
     atom    8 type  2   force =     0.00486744   -0.00500183    0.00044379
     atom    9 type  3   force =     0.00066610    0.00403023   -0.00393906
     atom   10 type  3   force =     0.00024270   -0.00675051   -0.00599586
     atom   11 type  3   force =     0.00113630   -0.01385596    0.00134891
     atom   12 type  3   force =     0.00872209    0.00869690    0.00234174
     atom   13 type  3   force =    -0.00563264    0.01085495    0.00048037
     atom   14 type  3   force =     0.00006530   -0.00555563    0.00135039
     atom   15 type  3   force =     0.00125314   -0.00019474    0.00157722
     atom   16 type  3   force =    -0.00173106    0.00421464    0.00316922
     atom   17 type  3   force =    -0.00198702   -0.00465036    0.00040073
     atom   18 type  3   force =     0.00566541    0.00072683   -0.00240621
     atom   19 type  3   force =     0.00445901   -0.00106989    0.00369966
     atom   20 type  4   force =     0.00064605    0.02435653   -0.00089409
     The non-local contrib.  to forces
     atom    1 type  1   force =     0.25253735   -0.01741458    0.04659898
     atom    2 type  1   force =    -0.21068518    0.03915649   -0.03258195
     atom    3 type  2   force =     0.44139308    0.11244285    0.11829803
     atom    4 type  2   force =     0.04697170    0.46247791    0.08782179
     atom    5 type  2   force =    -0.15569556   -0.32025221   -0.06981333
     atom    6 type  2   force =     0.07310202   -0.35793240   -0.03799488
     atom    7 type  2   force =     0.04517184    0.05398560   -0.10657516
     atom    8 type  2   force =    -0.41480706    0.26680580   -0.03790716
     atom    9 type  3   force =     0.03105650   -0.06058476    0.03708770
     atom   10 type  3   force =     0.00454002    0.06131569    0.05037181
     atom   11 type  3   force =     0.00916252    0.08246591    0.01276333
     atom   12 type  3   force =     0.04896020   -0.06507689   -0.00115089
     atom   13 type  3   force =    -0.06249645   -0.04929772   -0.01791448
     atom   14 type  3   force =    -0.02773520    0.06126640   -0.03638736
     atom   15 type  3   force =     0.07153699    0.01472532    0.01560087
     atom   16 type  3   force =    -0.00113328   -0.05710058   -0.04856492
     atom   17 type  3   force =     0.00617520    0.07874600    0.01274036
     atom   18 type  3   force =    -0.04989111   -0.02902789    0.05215205
     atom   19 type  3   force =    -0.02790433   -0.00983712   -0.07202670
     atom   20 type  4   force =     0.00186052    0.06461756   -0.00242942
     The ionic contribution  to forces
     atom    1 type  1   force =    -5.09015644    0.89101168   -2.27793314
     atom    2 type  1   force =     7.30036818   -1.31668671    0.67221667
     atom    3 type  2   force =    -6.69664630   -0.31282965   -4.21262521
     atom    4 type  2   force =    -0.21050051   -8.76924379   -1.96229024
     atom    5 type  2   force =    -2.05034070   10.55537764    0.68440376
     atom    6 type  2   force =     5.58795623    9.13736460    2.02865926
     atom    7 type  2   force =    -6.15841130   -1.20461159    3.93815024
     atom    8 type  2   force =     8.28619753   -3.09694370    0.77328247
     atom    9 type  3   force =    -2.13275369    2.31592459   -2.02969171
     atom   10 type  3   force =    -1.21053951   -2.28895025   -2.56096537
     atom   11 type  3   force =    -0.25948397   -3.42160014   -0.72215829
     atom   12 type  3   force =    -1.62983533    3.47647234    0.11031874
     atom   13 type  3   force =     2.56916188    2.74293230    0.80475670
     atom   14 type  3   force =    -0.22169414   -2.40754742    1.98352197
     atom   15 type  3   force =    -3.32622834   -0.62853265   -0.12743876
     atom   16 type  3   force =    -1.11032426    1.93980727    2.40657102
     atom   17 type  3   force =     1.10445439   -3.04545816   -0.34702898
     atom   18 type  3   force =     2.92525565    0.68027042   -1.85042049
     atom   19 type  3   force =     2.13963089   -0.01542416    2.77907082
     atom   20 type  4   force =     0.18388973   -5.23133262   -0.09039944
     The local contribution  to forces
     atom    1 type  1   force =     4.83048679   -0.87986588    2.22284264
     atom    2 type  1   force =    -7.08556865    1.27552881   -0.63858634
     atom    3 type  2   force =     6.25798893    0.20247320    4.10027221
     atom    4 type  2   force =     0.15947756    8.29900498    1.87090713
     atom    5 type  2   force =     2.19119651  -10.23030541   -0.61576082
     atom    6 type  2   force =    -5.64446689   -8.78429489   -1.98695283
     atom    7 type  2   force =     6.10644377    1.14939529   -3.82936671
     atom    8 type  2   force =    -7.87413678    2.82987743   -0.73563722
     atom    9 type  3   force =     2.10232765   -2.25130450    1.98865722
     atom   10 type  3   force =     1.20620178    2.22085976    2.50458500
     atom   11 type  3   force =     0.25144522    3.32511775    0.71073036
     atom   12 type  3   force =     1.58957383   -3.40265254   -0.10682176
     atom   13 type  3   force =    -2.51226610   -2.68274009   -0.78634899
     atom   14 type  3   force =     0.24947147    2.34070031   -1.94577021
     atom   15 type  3   force =     3.25592900    0.61360451    0.11341839
     atom   16 type  3   force =     1.10970313   -1.87849179   -2.35482333
     atom   17 type  3   force =    -1.11258745    2.96200064    0.33469223
     atom   18 type  3   force =    -2.86965674   -0.65052734    1.79585549
     atom   19 type  3   force =    -2.10723139    0.02417348   -2.70332356
     atom   20 type  4   force =    -0.18501678    5.19466909    0.09179599
     The core correction contribution to forces
     atom    1 type  1   force =    -0.00115895    0.00004558   -0.00023083
     atom    2 type  1   force =     0.00037018   -0.00010790    0.00007400
     atom    3 type  2   force =    -0.00819217   -0.00197456   -0.00330412
     atom    4 type  2   force =    -0.00019799   -0.00368937   -0.00083140
     atom    5 type  2   force =     0.00498458    0.00253188    0.00110679
     atom    6 type  2   force =    -0.00420588    0.00407158   -0.00018160
     atom    7 type  2   force =    -0.00096089   -0.00100581    0.00227602
     atom    8 type  2   force =     0.00786231   -0.00488704    0.00074013
     atom    9 type  3   force =     0.00000000    0.00000000    0.00000000
     atom   10 type  3   force =     0.00000000    0.00000000    0.00000000
     atom   11 type  3   force =     0.00000000    0.00000000    0.00000000
     atom   12 type  3   force =     0.00000000    0.00000000    0.00000000
     atom   13 type  3   force =     0.00000000    0.00000000    0.00000000
     atom   14 type  3   force =     0.00000000    0.00000000    0.00000000
     atom   15 type  3   force =     0.00000000    0.00000000    0.00000000
     atom   16 type  3   force =     0.00000000    0.00000000    0.00000000
     atom   17 type  3   force =     0.00000000    0.00000000    0.00000000
     atom   18 type  3   force =     0.00000000    0.00000000    0.00000000
     atom   19 type  3   force =     0.00000000    0.00000000    0.00000000
     atom   20 type  4   force =    -0.00009669   -0.00376392    0.00014244
     The Hubbard contrib.    to forces
     atom    1 type  1   force =     0.00000000    0.00000000    0.00000000
     atom    2 type  1   force =     0.00000000    0.00000000    0.00000000
     atom    3 type  2   force =     0.00000000    0.00000000    0.00000000
     atom    4 type  2   force =     0.00000000    0.00000000    0.00000000
     atom    5 type  2   force =     0.00000000    0.00000000    0.00000000
     atom    6 type  2   force =     0.00000000    0.00000000    0.00000000
     atom    7 type  2   force =     0.00000000    0.00000000    0.00000000
     atom    8 type  2   force =     0.00000000    0.00000000    0.00000000
     atom    9 type  3   force =     0.00000000    0.00000000    0.00000000
     atom   10 type  3   force =     0.00000000    0.00000000    0.00000000
     atom   11 type  3   force =     0.00000000    0.00000000    0.00000000
     atom   12 type  3   force =     0.00000000    0.00000000    0.00000000
     atom   13 type  3   force =     0.00000000    0.00000000    0.00000000
     atom   14 type  3   force =     0.00000000    0.00000000    0.00000000
     atom   15 type  3   force =     0.00000000    0.00000000    0.00000000
     atom   16 type  3   force =     0.00000000    0.00000000    0.00000000
     atom   17 type  3   force =     0.00000000    0.00000000    0.00000000
     atom   18 type  3   force =     0.00000000    0.00000000    0.00000000
     atom   19 type  3   force =     0.00000000    0.00000000    0.00000000
     atom   20 type  4   force =     0.00000000    0.00000000    0.00000000
     The SCF correction term to forces
     atom    1 type  1   force =     0.00036569   -0.00015665    0.00001111
     atom    2 type  1   force =    -0.00035592   -0.00005148   -0.00008471
     atom    3 type  2   force =     0.00025331    0.00004057    0.00002497
     atom    4 type  2   force =     0.00003460    0.00019278    0.00001148
     atom    5 type  2   force =     0.00006796   -0.00026134   -0.00003700
     atom    6 type  2   force =    -0.00010911   -0.00025024   -0.00006472
     atom    7 type  2   force =     0.00011107    0.00004114   -0.00003367
     atom    8 type  2   force =    -0.00024831    0.00014701   -0.00003397
     atom    9 type  3   force =     0.00003589   -0.00000377    0.00000819
     atom   10 type  3   force =     0.00004065    0.00002561    0.00001317
     atom   11 type  3   force =     0.00001278    0.00016184    0.00001398
     atom   12 type  3   force =     0.00002364   -0.00004468   -0.00000389
     atom   13 type  3   force =    -0.00003171   -0.00003822   -0.00001238
     atom   14 type  3   force =     0.00002342    0.00002641   -0.00001355
     atom   15 type  3   force =     0.00001575    0.00000940   -0.00000281
     atom   16 type  3   force =     0.00002360    0.00000107   -0.00001309
     atom   17 type  3   force =    -0.00002891    0.00006249   -0.00000241
     atom   18 type  3   force =    -0.00004214    0.00001297    0.00000722
     atom   19 type  3   force =    -0.00003592    0.00001923   -0.00002043
     atom   20 type  4   force =     0.00000953    0.00016774   -0.00000320

     Total force =     0.047104     Total SCF correction =     0.000853


     Computing stress (Cartesian axis) and pressure


     negative rho (up, down):  8.385E-04 0.000E+00
          total   stress  (Ry/bohr**3)                   (kbar)     P=        0.13
   0.00000268   0.00000013   0.00000003            0.39        0.02        0.00
   0.00000013  -0.00000092   0.00000039            0.02       -0.13        0.06
   0.00000003   0.00000039   0.00000089            0.00        0.06        0.13

     Energy error            =      3.0E-03 Ry
     Gradient error          =      2.4E-02 Ry/Bohr

     number of scf cycles    =   2
     number of bfgs steps    =   1

     energy             old  =    -259.3504170776 Ry
     energy             new  =    -259.3534663920 Ry

     CASE: energy            _new < energy            _old

     new trust radius        =       0.0710356578 bohr
     new conv_thr            =       0.0000002436 Ry


ATOMIC_POSITIONS (angstrom)
N             9.5601151477        9.9630833971        9.6273575066
N            11.6868280847        9.6542628143        9.9642702637
C             8.1311259136        9.6858791362        9.3648732140
C            10.5309421092        9.0250190065        9.6696782942
C            10.1013260228       11.2092262104        9.9204283889
C            11.4534916400       11.0130758094       10.1234058919
C             7.3808597585        9.3890018201       10.6443958245
C            12.9924158224        9.0075936758       10.0927120410
H             7.7477383239       10.5727328978        8.8460598339
H             8.1221016883        8.8413215778        8.6675643871
H            10.4120339381        7.9456523573        9.5030239236
H             9.4638447746       12.0827073034        9.9362579731
H            12.2699937269       11.6845093443       10.3585711311
H             7.8005102202        8.5084066213       11.1460756748
H             6.3367012011        9.1829344441       10.3855182365
H             7.4138147093       10.2460186629       11.3303796199
H            12.8619945467        7.9371531066        9.9089561822
H            13.6719712551        9.4476075469        9.3550362245
H            13.3626903876        9.1763813201       11.1092934604
Cl           10.6265507290        4.7308329477        9.8029919282



     Writing config-only to output data dir ./plusCL1.save/
     NEW-OLD atomic charge density approx. for the potential

     negative rho (up, down):  8.304E-04 0.000E+00

     total cpu time spent up to now is     1231.0 secs

     Self-consistent Calculation

     iteration #  1     ecut=    60.00 Ry     beta= 0.70
     Davidson diagonalization with overlap
     ethr =  1.00E-06,  avg # of iterations =  9.0

     negative rho (up, down):  8.263E-04 0.000E+00

     total cpu time spent up to now is     1261.4 secs

     total energy              =    -259.35611949 Ry
     estimated scf accuracy    <       0.00187931 Ry

     iteration #  2     ecut=    60.00 Ry     beta= 0.70
     Davidson diagonalization with overlap
     ethr =  3.61E-06,  avg # of iterations =  3.0

     negative rho (up, down):  8.400E-04 0.000E+00

     total cpu time spent up to now is     1287.7 secs

     total energy              =    -259.35640556 Ry
     estimated scf accuracy    <       0.00044042 Ry

     iteration #  3     ecut=    60.00 Ry     beta= 0.70
     Davidson diagonalization with overlap
     ethr =  8.47E-07,  avg # of iterations =  4.0

     negative rho (up, down):  8.780E-04 0.000E+00

     total cpu time spent up to now is     1313.5 secs

     total energy              =    -259.35548643 Ry
     estimated scf accuracy    <       0.02847846 Ry

     iteration #  4     ecut=    60.00 Ry     beta= 0.70
     Davidson diagonalization with overlap
     ethr =  8.47E-07,  avg # of iterations =  2.0

     negative rho (up, down):  8.407E-04 0.000E+00

     total cpu time spent up to now is     1339.0 secs

     total energy              =    -259.35654723 Ry
     estimated scf accuracy    <       0.00013598 Ry

     iteration #  5     ecut=    60.00 Ry     beta= 0.70
     Davidson diagonalization with overlap
     ethr =  2.62E-07,  avg # of iterations =  1.0

     negative rho (up, down):  8.370E-04 0.000E+00

     total cpu time spent up to now is     1364.3 secs

     total energy              =    -259.35655489 Ry
     estimated scf accuracy    <       0.00002798 Ry

     iteration #  6     ecut=    60.00 Ry     beta= 0.70
     Davidson diagonalization with overlap
     ethr =  5.38E-08,  avg # of iterations =  2.0

     negative rho (up, down):  8.365E-04 0.000E+00

     total cpu time spent up to now is     1389.8 secs

     total energy              =    -259.35655830 Ry
     estimated scf accuracy    <       0.00000870 Ry

     iteration #  7     ecut=    60.00 Ry     beta= 0.70
     Davidson diagonalization with overlap
     ethr =  1.67E-08,  avg # of iterations =  2.0

     negative rho (up, down):  8.365E-04 0.000E+00

     total cpu time spent up to now is     1415.3 secs

     total energy              =    -259.35655858 Ry
     estimated scf accuracy    <       0.00000137 Ry

     iteration #  8     ecut=    60.00 Ry     beta= 0.70
     Davidson diagonalization with overlap
     ethr =  2.64E-09,  avg # of iterations =  4.0

     negative rho (up, down):  8.367E-04 0.000E+00

     total cpu time spent up to now is     1440.5 secs

     End of self-consistent calculation

          k = 0.0000 0.0000 0.0000 (423701 PWs)   bands (ev):

   -28.0500 -25.1279 -21.3236 -20.5026 -19.3457 -17.6223 -16.9358 -16.1553
   -14.8472 -14.7656 -13.5722 -13.1660 -12.8575 -12.7044 -12.3779 -12.0229
   -11.8766 -11.0173 -10.7133 -10.3103  -9.7712  -8.7081  -7.8585  -3.2074
    -3.1320  -3.1314  -2.7035  -2.2689  -1.2912  -0.9687  -0.5907

     the Fermi energy is    -2.9224 ev

!    total energy              =    -259.35655854 Ry
     total all-electron energy =     -1612.207276 Ry
     estimated scf accuracy    <       0.00000015 Ry
     smearing contrib. (-TS)   =       0.00445178 Ry
     internal energy E=F+TS    =    -259.36101032 Ry

     The total energy is F=E-TS. E is the sum of the following terms:
     one-electron contribution =    -765.24866917 Ry
     hartree contribution      =     387.42208932 Ry
     xc contribution           =     -57.76662655 Ry
     ewald contribution        =     274.60676070 Ry
     one-center paw contrib.   =     -98.37456462 Ry

     convergence has been achieved in   8 iterations

     negative rho (up, down):  8.367E-04 0.000E+00

     Forces acting on atoms (cartesian axes, Ry/au):

     atom    1 type  1   force =     0.00547609    0.00102857    0.00196842
     atom    2 type  1   force =    -0.00634088    0.00356320   -0.00017978
     atom    3 type  2   force =     0.01965643    0.00298866   -0.00313770
     atom    4 type  2   force =     0.00123297    0.00638777   -0.00200095
     atom    5 type  2   force =     0.02058476   -0.02178617   -0.00183882
     atom    6 type  2   force =    -0.02561998   -0.00787116   -0.00377602
     atom    7 type  2   force =    -0.00475560   -0.00074499    0.00083459
     atom    8 type  2   force =    -0.00585209    0.00037183   -0.00042933
     atom    9 type  3   force =    -0.00452263   -0.00129822   -0.00145110
     atom   10 type  3   force =    -0.00665499   -0.00243759   -0.00103093
     atom   11 type  3   force =     0.00148639   -0.00180737    0.00287049
     atom   12 type  3   force =     0.00557842    0.00586901    0.00153134
     atom   13 type  3   force =    -0.00443681    0.00429053    0.00012596
     atom   14 type  3   force =    -0.00190970   -0.00101545    0.00065896
     atom   15 type  3   force =    -0.00400522   -0.00149993    0.00467574
     atom   16 type  3   force =    -0.00171088   -0.00123134    0.00061625
     atom   17 type  3   force =     0.00263403   -0.00432238    0.00076577
     atom   18 type  3   force =     0.00397215   -0.00300563    0.00073595
     atom   19 type  3   force =     0.00458961   -0.00293092    0.00003314
     atom   20 type  4   force =     0.00059792    0.02545158   -0.00097198
     The non-local contrib.  to forces
     atom    1 type  1   force =     0.26633332   -0.01566954    0.08427687
     atom    2 type  1   force =    -0.21117338    0.05619940   -0.03482124
     atom    3 type  2   force =     0.45949559    0.11345818    0.10541983
     atom    4 type  2   force =     0.05408471    0.48008555    0.08781549
     atom    5 type  2   force =    -0.13158284   -0.33902505   -0.07751995
     atom    6 type  2   force =     0.04209854   -0.35916641   -0.04375634
     atom    7 type  2   force =     0.04876499    0.05650154   -0.11473955
     atom    8 type  2   force =    -0.42049941    0.27246645   -0.03759735
     atom    9 type  3   force =     0.02824908   -0.06125323    0.03729397
     atom   10 type  3   force =     0.00192227    0.06037359    0.05018143
     atom   11 type  3   force =     0.00833104    0.08034303    0.01173933
     atom   12 type  3   force =     0.04747441   -0.06619752   -0.00139356
     atom   13 type  3   force =    -0.06069425   -0.05094269   -0.01763137
     atom   14 type  3   force =    -0.02787322    0.06115861   -0.03533579
     atom   15 type  3   force =     0.07191872    0.01473607    0.01677770
     atom   16 type  3   force =    -0.00130048   -0.05707810   -0.04752787
     atom   17 type  3   force =     0.00789536    0.07854673    0.01279384
     atom   18 type  3   force =    -0.04883727   -0.02960665    0.05198610
     atom   19 type  3   force =    -0.02698499   -0.01038571   -0.07183396
     atom   20 type  4   force =     0.00172034    0.06697278   -0.00260814
     The ionic contribution  to forces
     atom    1 type  1   force =    -4.93950629    0.95326186   -2.44552545
     atom    2 type  1   force =     7.11953246   -1.30152104    0.67391720
     atom    3 type  2   force =    -6.68392945   -0.30429007   -4.16128163
     atom    4 type  2   force =    -0.20899964   -8.61559182   -1.94781436
     atom    5 type  2   force =    -1.98932941   10.33277654    0.72279392
     atom    6 type  2   force =     5.46951058    8.97525311    2.01611040
     atom    7 type  2   force =    -6.08041945   -1.18021704    4.04096533
     atom    8 type  2   force =     8.25112517   -3.04775141    0.76542670
     atom    9 type  3   force =    -2.08049165    2.32747078   -2.02702140
     atom   10 type  3   force =    -1.16885177   -2.26802573   -2.55131283
     atom   11 type  3   force =    -0.24686997   -3.34551865   -0.69203655
     atom   12 type  3   force =    -1.58828848    3.46875279    0.11572446
     atom   13 type  3   force =     2.51686556    2.75212247    0.79286507
     atom   14 type  3   force =    -0.21202844   -2.39982164    1.96262900
     atom   15 type  3   force =    -3.33687789   -0.62864076   -0.13942052
     atom   16 type  3   force =    -1.09544189    1.94219646    2.38359163
     atom   17 type  3   force =     1.07613503   -3.03406082   -0.34547269
     atom   18 type  3   force =     2.89602219    0.69521544   -1.84450638
     atom   19 type  3   force =     2.11538556    0.00012003    2.77073341
     atom   20 type  4   force =     0.18645779   -5.32173050   -0.09036531
     The local contribution  to forces
     atom    1 type  1   force =     4.68007047   -0.93641189    2.36404393
     atom    2 type  1   force =    -6.91512459    1.24941066   -0.63935460
     atom    3 type  2   force =     6.25244836    0.19576067    4.05577266
     atom    4 type  2   force =     0.15655640    8.14607679    1.85889014
     atom    5 type  2   force =     2.13718555  -10.01877631   -0.64830418
     atom    6 type  2   force =    -5.53378353   -8.62818237   -1.97608291
     atom    7 type  2   force =     6.02796302    1.12403325   -3.92752753
     atom    8 type  2   force =    -7.84429398    2.78065086   -0.72898490
     atom    9 type  3   force =     2.04769264   -2.26751200    1.98827198
     atom   10 type  3   force =     1.16024115    2.20521864    2.50009468
     atom   11 type  3   force =     0.24001339    3.26329036    0.68315952
     atom   12 type  3   force =     1.54637063   -3.39664926   -0.11279782
     atom   13 type  3   force =    -2.46061399   -2.69687915   -0.77510779
     atom   14 type  3   force =     0.23797097    2.33764457   -1.92663075
     atom   15 type  3   force =     3.26093705    0.61240901    0.12731415
     atom   16 type  3   force =     1.09501173   -1.88634107   -2.33544476
     atom   17 type  3   force =    -1.08138754    2.95117837    0.33344631
     atom   18 type  3   force =    -2.84320691   -0.66860761    1.79325484
     atom   19 type  3   force =    -2.08380683    0.00733949   -2.69886169
     atom   20 type  4   force =    -0.18748637    5.28395865    0.09185994
     The core correction contribution to forces
     atom    1 type  1   force =    -0.00163572   -0.00004776   -0.00083080
     atom    2 type  1   force =     0.00064645   -0.00035867    0.00015246
     atom    3 type  2   force =    -0.00851503   -0.00194814   -0.00307592
     atom    4 type  2   force =    -0.00038795   -0.00422191   -0.00088153
     atom    5 type  2   force =     0.00436018    0.00335589    0.00122443
     atom    6 type  2   force =    -0.00333680    0.00433631   -0.00000852
     atom    7 type  2   force =    -0.00112481   -0.00106791    0.00212508
     atom    8 type  2   force =     0.00791290   -0.00501126    0.00074783
     atom    9 type  3   force =     0.00000000    0.00000000    0.00000000
     atom   10 type  3   force =     0.00000000    0.00000000    0.00000000
     atom   11 type  3   force =     0.00000000    0.00000000    0.00000000
     atom   12 type  3   force =     0.00000000    0.00000000    0.00000000
     atom   13 type  3   force =     0.00000000    0.00000000    0.00000000
     atom   14 type  3   force =     0.00000000    0.00000000    0.00000000
     atom   15 type  3   force =     0.00000000    0.00000000    0.00000000
     atom   16 type  3   force =     0.00000000    0.00000000    0.00000000
     atom   17 type  3   force =     0.00000000    0.00000000    0.00000000
     atom   18 type  3   force =     0.00000000    0.00000000    0.00000000
     atom   19 type  3   force =     0.00000000    0.00000000    0.00000000
     atom   20 type  4   force =    -0.00008834   -0.00390860    0.00015010
     The Hubbard contrib.    to forces
     atom    1 type  1   force =     0.00000000    0.00000000    0.00000000
     atom    2 type  1   force =     0.00000000    0.00000000    0.00000000
     atom    3 type  2   force =     0.00000000    0.00000000    0.00000000
     atom    4 type  2   force =     0.00000000    0.00000000    0.00000000
     atom    5 type  2   force =     0.00000000    0.00000000    0.00000000
     atom    6 type  2   force =     0.00000000    0.00000000    0.00000000
     atom    7 type  2   force =     0.00000000    0.00000000    0.00000000
     atom    8 type  2   force =     0.00000000    0.00000000    0.00000000
     atom    9 type  3   force =     0.00000000    0.00000000    0.00000000
     atom   10 type  3   force =     0.00000000    0.00000000    0.00000000
     atom   11 type  3   force =     0.00000000    0.00000000    0.00000000
     atom   12 type  3   force =     0.00000000    0.00000000    0.00000000
     atom   13 type  3   force =     0.00000000    0.00000000    0.00000000
     atom   14 type  3   force =     0.00000000    0.00000000    0.00000000
     atom   15 type  3   force =     0.00000000    0.00000000    0.00000000
     atom   16 type  3   force =     0.00000000    0.00000000    0.00000000
     atom   17 type  3   force =     0.00000000    0.00000000    0.00000000
     atom   18 type  3   force =     0.00000000    0.00000000    0.00000000
     atom   19 type  3   force =     0.00000000    0.00000000    0.00000000
     atom   20 type  4   force =     0.00000000    0.00000000    0.00000000
     The SCF correction term to forces
     atom    1 type  1   force =     0.00020542   -0.00009690    0.00000215
     atom    2 type  1   force =    -0.00023072   -0.00015995   -0.00007532
     atom    3 type  2   force =     0.00014806    0.00001523    0.00002565
     atom    4 type  2   force =    -0.00002943    0.00004637   -0.00001241
     atom    5 type  2   force =    -0.00005763   -0.00011003   -0.00003477
     atom    6 type  2   force =    -0.00011766   -0.00010460   -0.00004037
     atom    7 type  2   force =     0.00005176    0.00001238    0.00000954
     atom    8 type  2   force =    -0.00010566    0.00002439   -0.00002332
     atom    9 type  3   force =     0.00001841    0.00000344    0.00000264
     atom   10 type  3   force =     0.00002448    0.00000311    0.00000408
     atom   11 type  3   force =     0.00000305    0.00008510    0.00000647
     atom   12 type  3   force =     0.00001297   -0.00002979   -0.00000344
     atom   13 type  3   force =    -0.00000303   -0.00000290   -0.00000167
     atom   14 type  3   force =     0.00001210    0.00001022   -0.00000521
     atom   15 type  3   force =     0.00000800    0.00000295    0.00000270
     atom   16 type  3   force =     0.00001087   -0.00000142   -0.00000445
     atom   17 type  3   force =    -0.00001771    0.00002055   -0.00000341
     atom   18 type  3   force =    -0.00001474    0.00000039   -0.00000033
     atom   19 type  3   force =    -0.00001301    0.00000248   -0.00000634
     atom   20 type  4   force =    -0.00001440    0.00016645   -0.00001029

     Total force =     0.056637     Total SCF correction =     0.000509


     Computing stress (Cartesian axis) and pressure


     negative rho (up, down):  8.367E-04 0.000E+00
          total   stress  (Ry/bohr**3)                   (kbar)     P=       -0.29
  -0.00000075  -0.00000002  -0.00000054           -0.11       -0.00       -0.08
  -0.00000002  -0.00000530  -0.00000023           -0.00       -0.78       -0.03
  -0.00000054  -0.00000023   0.00000009           -0.08       -0.03        0.01

     Energy error            =      3.1E-03 Ry
     Gradient error          =      2.6E-02 Ry/Bohr

     number of scf cycles    =   3
     number of bfgs steps    =   2

     energy             old  =    -259.3534663920 Ry
     energy             new  =    -259.3565585410 Ry

     CASE: energy            _new < energy            _old

     new trust radius        =       0.0634835970 bohr
     new conv_thr            =       0.0000002562 Ry


ATOMIC_POSITIONS (angstrom)
N             9.5585886235        9.9607505579        9.6211503971
N            11.6859690809        9.6517603414        9.9645405500
C             8.1287746339        9.6842091764        9.3632057940
C            10.5293725308        9.0202916832        9.6656419354
C            10.1082793027       11.2013741655        9.9201936456
C            11.4456070679       11.0085713175       10.1234991240
C             7.3752342548        9.3873425136       10.6501810241
C            12.9967294881        9.0031964902       10.0930755538
H             7.7473166136       10.5754973989        8.8422431851
H             8.1199384747        8.8359556309        8.6630418889
H            10.4135698614        7.9299484508        9.5051503274
H             9.4720759256       12.0960068037        9.9390743370
H            12.2653051418       11.6982220334       10.3597382603
H             7.7993533477        8.5032588955       11.1473071810
H             6.3344794157        9.1818247422       10.3881833360
H             7.4112345914       10.2489719410       11.3333669631
H            12.8609290485        7.9310917025        9.9096344521
H            13.6783681157        9.4466884229        9.3536220714
H            13.3685056474        9.1740449548       11.1122513991
Cl           10.6274188339        4.7643927777        9.8017485745



     Writing config-only to output data dir ./plusCL1.save/
     NEW-OLD atomic charge density approx. for the potential

     negative rho (up, down):  8.357E-04 0.000E+00

     total cpu time spent up to now is     1528.6 secs

     Self-consistent Calculation

     iteration #  1     ecut=    60.00 Ry     beta= 0.70
     Davidson diagonalization with overlap
     ethr =  1.00E-06,  avg # of iterations =  7.0

     negative rho (up, down):  8.335E-04 0.000E+00

     total cpu time spent up to now is     1557.2 secs

     total energy              =    -259.35824261 Ry
     estimated scf accuracy    <       0.00084492 Ry

     iteration #  2     ecut=    60.00 Ry     beta= 0.70
     Davidson diagonalization with overlap
     ethr =  1.62E-06,  avg # of iterations =  2.0

     negative rho (up, down):  8.490E-04 0.000E+00

     total cpu time spent up to now is     1583.3 secs

     total energy              =    -259.35771452 Ry
     estimated scf accuracy    <       0.00325940 Ry

     iteration #  3     ecut=    60.00 Ry     beta= 0.70
     Davidson diagonalization with overlap
     ethr =  1.62E-06,  avg # of iterations =  3.0

     negative rho (up, down):  8.778E-04 0.000E+00

     total cpu time spent up to now is     1608.8 secs

     total energy              =    -259.35660305 Ry
     estimated scf accuracy    <       0.04790872 Ry

     iteration #  4     ecut=    60.00 Ry     beta= 0.70
     Davidson diagonalization with overlap
     ethr =  1.62E-06,  avg # of iterations =  2.0

     negative rho (up, down):  8.421E-04 0.000E+00

     total cpu time spent up to now is     1634.3 secs

     total energy              =    -259.35845738 Ry
     estimated scf accuracy    <       0.00030450 Ry

     iteration #  5     ecut=    60.00 Ry     beta= 0.70
     Davidson diagonalization with overlap
     ethr =  5.86E-07,  avg # of iterations =  1.0

     negative rho (up, down):  8.380E-04 0.000E+00

     total cpu time spent up to now is     1659.5 secs

     total energy              =    -259.35846427 Ry
     estimated scf accuracy    <       0.00010071 Ry

     iteration #  6     ecut=    60.00 Ry     beta= 0.70
     Davidson diagonalization with overlap
     ethr =  1.94E-07,  avg # of iterations =  1.0

     negative rho (up, down):  8.377E-04 0.000E+00

     total cpu time spent up to now is     1684.7 secs

     total energy              =    -259.35846630 Ry
     estimated scf accuracy    <       0.00001407 Ry

     iteration #  7     ecut=    60.00 Ry     beta= 0.70
     Davidson diagonalization with overlap
     ethr =  2.71E-08,  avg # of iterations =  1.0

     negative rho (up, down):  8.378E-04 0.000E+00

     total cpu time spent up to now is     1709.9 secs

     total energy              =    -259.35846648 Ry
     estimated scf accuracy    <       0.00000285 Ry

     iteration #  8     ecut=    60.00 Ry     beta= 0.70
     Davidson diagonalization with overlap
     ethr =  5.47E-09,  avg # of iterations =  2.0

     negative rho (up, down):  8.379E-04 0.000E+00

     total cpu time spent up to now is     1735.3 secs

     total energy              =    -259.35846657 Ry
     estimated scf accuracy    <       0.00000037 Ry

     iteration #  9     ecut=    60.00 Ry     beta= 0.70
     Davidson diagonalization with overlap
     ethr =  7.10E-10,  avg # of iterations =  4.0

     negative rho (up, down):  8.381E-04 0.000E+00

     total cpu time spent up to now is     1760.3 secs

     End of self-consistent calculation

          k = 0.0000 0.0000 0.0000 (423701 PWs)   bands (ev):

   -28.0381 -25.0839 -21.3167 -20.4596 -19.2967 -17.5776 -16.8873 -16.1487
   -14.7954 -14.7697 -13.5468 -13.0771 -12.8145 -12.6392 -12.3087 -11.9836
   -11.8461 -10.9994 -10.6898 -10.3086  -9.7693  -8.6815  -7.8749  -3.2243
    -3.1434  -3.1429  -2.7081  -2.1809  -1.2975  -0.9645  -0.6198

     the Fermi energy is    -2.9328 ev

!    total energy              =    -259.35846658 Ry
     total all-electron energy =     -1612.209184 Ry
     estimated scf accuracy    <       0.00000003 Ry
     smearing contrib. (-TS)   =       0.00460468 Ry
     internal energy E=F+TS    =    -259.36307126 Ry

     The total energy is F=E-TS. E is the sum of the following terms:
     one-electron contribution =    -765.05213824 Ry
     hartree contribution      =     387.34925200 Ry
     xc contribution           =     -57.72765623 Ry
     ewald contribution        =     274.44155272 Ry
     one-center paw contrib.   =     -98.37408151 Ry

     convergence has been achieved in   9 iterations

     negative rho (up, down):  8.381E-04 0.000E+00

     Forces acting on atoms (cartesian axes, Ry/au):

     atom    1 type  1   force =     0.00843349   -0.00507389    0.00389827
     atom    2 type  1   force =    -0.00495134   -0.00400580   -0.00129925
     atom    3 type  2   force =     0.01583569    0.00245560   -0.00394530
     atom    4 type  2   force =     0.00344391    0.00053248   -0.00198989
     atom    5 type  2   force =    -0.01695299    0.00474598   -0.00497093
     atom    6 type  2   force =     0.01214064    0.00237240    0.00377255
     atom    7 type  2   force =     0.00433083    0.00090497   -0.00420987
     atom    8 type  2   force =    -0.00745595    0.00311596   -0.00052294
     atom    9 type  3   force =    -0.00383378   -0.00556519    0.00102686
     atom   10 type  3   force =    -0.00726859    0.00202932    0.00300135
     atom   11 type  3   force =     0.00192392    0.00791320    0.00386268
     atom   12 type  3   force =     0.01640181   -0.01282823    0.00067609
     atom   13 type  3   force =    -0.01711423   -0.00859883   -0.00354003
     atom   14 type  3   force =    -0.00344513    0.00202431    0.00016645
     atom   15 type  3   force =    -0.00704011   -0.00198677    0.00449188
     atom   16 type  3   force =    -0.00186222   -0.00394961   -0.00045063
     atom   17 type  3   force =     0.00370877   -0.00159491    0.00109904
     atom   18 type  3   force =     0.00047483   -0.00532843    0.00363792
     atom   19 type  3   force =     0.00266635   -0.00362885   -0.00367365
     atom   20 type  4   force =     0.00056409    0.02646629   -0.00103058
     The non-local contrib.  to forces
     atom    1 type  1   force =     0.26964837   -0.02061573    0.09528760
     atom    2 type  1   force =    -0.21403309    0.05706998   -0.03904793
     atom    3 type  2   force =     0.45729037    0.11268743    0.10351814
     atom    4 type  2   force =     0.05545413    0.47815446    0.08902535
     atom    5 type  2   force =    -0.17528066   -0.31223981   -0.08360885
     atom    6 type  2   force =     0.08657718   -0.34875749   -0.03613706
     atom    7 type  2   force =     0.05955151    0.05879541   -0.12102754
     atom    8 type  2   force =    -0.42105733    0.27729516   -0.03710077
     atom    9 type  3   force =     0.02766115   -0.06074962    0.03693265
     atom   10 type  3   force =     0.00183624    0.05966878    0.04958394
     atom   11 type  3   force =     0.00777425    0.07853873    0.01087410
     atom   12 type  3   force =     0.04454117   -0.06396767   -0.00156952
     atom   13 type  3   force =    -0.05787832   -0.04981998   -0.01682413
     atom   14 type  3   force =    -0.02799623    0.06093962   -0.03464632
     atom   15 type  3   force =     0.07238209    0.01484213    0.01723794
     atom   16 type  3   force =    -0.00152381   -0.05708288   -0.04697009
     atom   17 type  3   force =     0.00831464    0.07812000    0.01266892
     atom   18 type  3   force =    -0.04834034   -0.02948177    0.05138219
     atom   19 type  3   force =    -0.02680807   -0.01042323   -0.07120737
     atom   20 type  4   force =     0.00168742    0.06919524   -0.00274148
     The ionic contribution  to forces
     atom    1 type  1   force =    -4.97071438    0.96250417   -2.52188611
     atom    2 type  1   force =     7.17033979   -1.33051640    0.70044182
     atom    3 type  2   force =    -6.72097917   -0.30421987   -4.12487239
     atom    4 type  2   force =    -0.20801430   -8.62733786   -1.98116086
     atom    5 type  2   force =    -2.11870483   10.36355770    0.72146561
     atom    6 type  2   force =     5.59579553    8.97493158    2.06831511
     atom    7 type  2   force =    -6.03624233   -1.15522641    4.03658417
     atom    8 type  2   force =     8.22710523   -3.01511026    0.76144594
     atom    9 type  3   force =    -2.06802648    2.31892648   -2.01559624
     atom   10 type  3   force =    -1.17038391   -2.25154632   -2.53500891
[...]
H            10.4494234421        7.8512211886        9.5174053067
H             9.5241459255       12.0771219731        9.9286148934
H            12.2311345224       11.6499761876       10.3882420138
H             7.8095347867        8.4868845846       11.1604948793
H             6.3308101665        9.1347072097       10.4207337006
H             7.4128137964       10.2196039226       11.3274657957
H            12.7061626137        7.8032554310       10.0160122446
H            13.6386365172        9.1891533457        9.3244632701
H            13.3586453658        9.0941304858       11.0953907832
Cl           10.9094315785        5.9951917204        9.7697567151



     Writing config-only to output data dir ./plusCL1.save/
     NEW-OLD atomic charge density approx. for the potential

     negative rho (up, down):  8.895E-04 0.000E+00

     total cpu time spent up to now is    13527.0 secs

     Self-consistent Calculation

     iteration #  1     ecut=    60.00 Ry     beta= 0.70
     Davidson diagonalization with overlap
     ethr =  1.00E-06,  avg # of iterations =  5.0

     Threshold (ethr) on eigenvalues was too large:
     Diagonalizing with lowered threshold

     Davidson diagonalization with overlap
     ethr =  7.76E-08,  avg # of iterations =  2.0

     negative rho (up, down):  8.891E-04 0.000E+00

     total cpu time spent up to now is    13570.9 secs

     total energy              =    -259.43065340 Ry
     estimated scf accuracy    <       0.00004338 Ry

     iteration #  2     ecut=    60.00 Ry     beta= 0.70
     Davidson diagonalization with overlap
     ethr =  8.34E-08,  avg # of iterations =  2.0

     negative rho (up, down):  8.893E-04 0.000E+00

     total cpu time spent up to now is    13597.5 secs

     total energy              =    -259.43065705 Ry
     estimated scf accuracy    <       0.00000597 Ry

     iteration #  3     ecut=    60.00 Ry     beta= 0.70
     Davidson diagonalization with overlap
     ethr =  1.15E-08,  avg # of iterations =  2.0

     negative rho (up, down):  8.893E-04 0.000E+00

     total cpu time spent up to now is    13624.4 secs

     total energy              =    -259.43065814 Ry
     estimated scf accuracy    <       0.00000299 Ry

     iteration #  4     ecut=    60.00 Ry     beta= 0.70
     Davidson diagonalization with overlap
     ethr =  5.76E-09,  avg # of iterations =  2.0

     negative rho (up, down):  8.893E-04 0.000E+00

     total cpu time spent up to now is    13651.0 secs

     total energy              =    -259.43065883 Ry
     estimated scf accuracy    <       0.00000015 Ry

     iteration #  5     ecut=    60.00 Ry     beta= 0.70
     Davidson diagonalization with overlap
     ethr =  2.86E-10,  avg # of iterations =  2.0

     negative rho (up, down):  8.893E-04 0.000E+00

     total cpu time spent up to now is    13677.2 secs

     End of self-consistent calculation

          k = 0.0000 0.0000 0.0000 (423701 PWs)   bands (ev):

   -27.1961 -24.2450 -20.5859 -19.6342 -18.4816 -16.9299 -16.2643 -16.0467
   -15.2215 -14.0412 -12.7273 -12.3969 -12.0705 -11.8074 -11.2289 -11.1771
   -11.0822 -10.0890  -9.9267  -9.7531  -9.2380  -7.8923  -7.0247  -4.4483
    -4.3817  -4.3307  -1.6894  -1.4465  -0.9003  -0.5521  -0.2699

     the Fermi energy is    -2.9857 ev

!    total energy              =    -259.43065885 Ry
     total all-electron energy =     -1612.281377 Ry
     estimated scf accuracy    <          8.1E-09 Ry
     smearing contrib. (-TS)   =       0.00000000 Ry
     internal energy E=F+TS    =    -259.43065885 Ry

     The total energy is F=E-TS. E is the sum of the following terms:
     one-electron contribution =    -803.00701735 Ry
     hartree contribution      =     407.32412011 Ry
     xc contribution           =     -57.87229585 Ry
     ewald contribution        =     292.50470147 Ry
     one-center paw contrib.   =     -98.38016723 Ry

     convergence has been achieved in   5 iterations

     negative rho (up, down):  8.893E-04 0.000E+00

     Forces acting on atoms (cartesian axes, Ry/au):

     atom    1 type  1   force =    -0.00010233    0.00032999   -0.00031809
     atom    2 type  1   force =    -0.00041388   -0.00024381    0.00026821
     atom    3 type  2   force =    -0.00006169    0.00026571    0.00000710
     atom    4 type  2   force =    -0.00076961    0.00000887    0.00083969
     atom    5 type  2   force =     0.00030071    0.00001693   -0.00013753
     atom    6 type  2   force =     0.00018170   -0.00024694    0.00006969
     atom    7 type  2   force =     0.00022283   -0.00029496    0.00053829
     atom    8 type  2   force =    -0.00023087    0.00010013   -0.00038154
     atom    9 type  3   force =     0.00020443   -0.00043111   -0.00132078
     atom   10 type  3   force =    -0.00022011    0.00076584   -0.00065782
     atom   11 type  3   force =     0.00014703    0.00010534    0.00017413
     atom   12 type  3   force =    -0.00016517   -0.00060134    0.00039161
     atom   13 type  3   force =     0.00011595   -0.00011921   -0.00018738
     atom   14 type  3   force =     0.00041730   -0.00061089    0.00046939
     atom   15 type  3   force =    -0.00011201    0.00069656    0.00001874
     atom   16 type  3   force =    -0.00053941   -0.00012910    0.00032659
     atom   17 type  3   force =     0.00013967    0.00017217    0.00060259
     atom   18 type  3   force =     0.00075970    0.00012410   -0.00027859
     atom   19 type  3   force =    -0.00006112   -0.00002397   -0.00036816
     atom   20 type  4   force =     0.00018687    0.00011567   -0.00005614
     The non-local contrib.  to forces
     atom    1 type  1   force =     0.18783763    0.01064150    0.09177751
     atom    2 type  1   force =    -0.18734106    0.08698311   -0.03195944
     atom    3 type  2   force =     0.41121301    0.11563926    0.10894992
     atom    4 type  2   force =     0.07262397    0.70909251    0.13763594
     atom    5 type  2   force =    -0.17758315   -0.29626283   -0.08869745
     atom    6 type  2   force =     0.08648894   -0.33121847   -0.04334867
     atom    7 type  2   force =     0.03223656    0.04870827   -0.09784830
     atom    8 type  2   force =    -0.36585067    0.37051509   -0.03720071
     atom    9 type  3   force =     0.03096105   -0.05891191    0.03748694
     atom   10 type  3   force =     0.00367476    0.06170285    0.04749825
     atom   11 type  3   force =     0.00340494    0.06545209    0.00565955
     atom   12 type  3   force =     0.04241124   -0.06816674   -0.00212128
     atom   13 type  3   force =    -0.05811649   -0.05227235   -0.01945499
     atom   14 type  3   force =    -0.02874929    0.06020552   -0.03575693
     atom   15 type  3   force =     0.07136598    0.01564891    0.01417798
     atom   16 type  3   force =    -0.00142258   -0.05738026   -0.04685387
     atom   17 type  3   force =     0.01580658    0.07684761    0.00610136
     atom   18 type  3   force =    -0.04962933   -0.01982493    0.05432096
     atom   19 type  3   force =    -0.03025891   -0.01300319   -0.06874838
     atom   20 type  4   force =    -0.00357678    0.06082051   -0.00417889
     The ionic contribution  to forces
     atom    1 type  1   force =    -5.23545443    1.59757304   -2.79574771
     atom    2 type  1   force =     7.52501445   -0.40435430    0.71891309
     atom    3 type  2   force =    -6.93223366   -0.17055048   -4.09056273
     atom    4 type  2   force =    -0.57047044   -7.78941305   -2.56187420
     atom    5 type  2   force =    -2.15261227   10.57350947    0.69200429
     atom    6 type  2   force =     5.75406561    9.10136212    2.25238886
     atom    7 type  2   force =    -6.19790517   -1.02608155    4.02807318
     atom    8 type  2   force =     8.49268637   -2.82518357    0.98614289
     atom    9 type  3   force =    -2.17412949    2.28195891   -2.03988668
     atom   10 type  3   force =    -1.29957219   -2.29343062   -2.48770443
     atom   11 type  3   force =    -0.42556247   -2.54460015   -0.64860428
     atom   12 type  3   force =    -1.49110053    3.55135648    0.12816383
     atom   13 type  3   force =     2.49771672    2.80520343    0.87796274
     atom   14 type  3   force =    -0.25420447   -2.35266435    2.02253234
     atom   15 type  3   force =    -3.34623381   -0.65013570   -0.06298806
     atom   16 type  3   force =    -1.11366291    1.98202955    2.37191705
     atom   17 type  3   force =     1.13617277   -2.85048145   -0.01430327
     atom   18 type  3   force =     2.96375575    0.42045432   -1.93752941
     atom   19 type  3   force =     2.26411637    0.14784306    2.73146502
     atom   20 type  4   force =     0.55961381   -9.55439516   -0.17036254
     The local contribution  to forces
     atom    1 type  1   force =     5.04765679   -1.60724058    2.70448575
     atom    2 type  1   force =    -7.33791150    0.31811715   -0.68671841
     atom    3 type  2   force =     6.52866781    0.05723239    3.98476360
     atom    4 type  2   force =     0.49757254    7.08773448    2.42620662
     atom    5 type  2   force =     2.32481423  -10.27987357   -0.60502947
     atom    6 type  2   force =    -5.83569987   -8.77451053   -2.20881496
     atom    7 type  2   force =     6.16679153    0.97804126   -3.93183888
     atom    8 type  2   force =    -8.13423053    2.46156024   -0.95009107
     atom    9 type  3   force =     2.14336969   -2.22347551    2.00107767
     atom   10 type  3   force =     1.29567695    2.23249387    2.43954890
     atom   11 type  3   force =     0.42230897    2.47925616    0.64312035
     atom   12 type  3   force =     1.44851698   -3.48377688   -0.12564978
     atom   13 type  3   force =    -2.43947788   -2.75304733   -0.85869278
     atom   14 type  3   force =     0.28337027    2.29184729   -1.98630401
     atom   15 type  3   force =     3.27475347    0.63518467    0.04882972
     atom   16 type  3   force =     1.11454263   -1.92477515   -2.32473253
     atom   17 type  3   force =    -1.15184551    2.77381212    0.00880455
     atom   18 type  3   force =    -2.91337480   -0.40050326    1.88293140
     atom   19 type  3   force =    -2.23392476   -0.13486106   -2.66308715
     atom   20 type  4   force =    -0.55580526    9.49482202    0.17443310
     The core correction contribution to forces
     atom    1 type  1   force =    -0.00012823   -0.00071223   -0.00085391
     atom    2 type  1   force =    -0.00013048   -0.00102137    0.00001770
     atom    3 type  2   force =    -0.00771585   -0.00207843   -0.00315995
     atom    4 type  2   force =    -0.00045552   -0.00742417   -0.00113033
     atom    5 type  2   force =     0.00568170    0.00264450    0.00157945
     atom    6 type  2   force =    -0.00461513    0.00407626   -0.00015547
     atom    7 type  2   force =    -0.00091030   -0.00097305    0.00214627
     atom    8 type  2   force =     0.00712701   -0.00678372    0.00075514
     atom    9 type  3   force =     0.00000000    0.00000000    0.00000000
     atom   10 type  3   force =     0.00000000    0.00000000    0.00000000
     atom   11 type  3   force =     0.00000000    0.00000000    0.00000000
     atom   12 type  3   force =     0.00000000    0.00000000    0.00000000
     atom   13 type  3   force =     0.00000000    0.00000000    0.00000000
     atom   14 type  3   force =     0.00000000    0.00000000    0.00000000
     atom   15 type  3   force =     0.00000000    0.00000000    0.00000000
     atom   16 type  3   force =     0.00000000    0.00000000    0.00000000
     atom   17 type  3   force =     0.00000000    0.00000000    0.00000000
     atom   18 type  3   force =     0.00000000    0.00000000    0.00000000
     atom   19 type  3   force =     0.00000000    0.00000000    0.00000000
     atom   20 type  4   force =     0.00001252   -0.00106380    0.00003097
     The Hubbard contrib.    to forces
     atom    1 type  1   force =     0.00000000    0.00000000    0.00000000
     atom    2 type  1   force =     0.00000000    0.00000000    0.00000000
     atom    3 type  2   force =     0.00000000    0.00000000    0.00000000
     atom    4 type  2   force =     0.00000000    0.00000000    0.00000000
     atom    5 type  2   force =     0.00000000    0.00000000    0.00000000
     atom    6 type  2   force =     0.00000000    0.00000000    0.00000000
     atom    7 type  2   force =     0.00000000    0.00000000    0.00000000
     atom    8 type  2   force =     0.00000000    0.00000000    0.00000000
     atom    9 type  3   force =     0.00000000    0.00000000    0.00000000
     atom   10 type  3   force =     0.00000000    0.00000000    0.00000000
     atom   11 type  3   force =     0.00000000    0.00000000    0.00000000
     atom   12 type  3   force =     0.00000000    0.00000000    0.00000000
     atom   13 type  3   force =     0.00000000    0.00000000    0.00000000
     atom   14 type  3   force =     0.00000000    0.00000000    0.00000000
     atom   15 type  3   force =     0.00000000    0.00000000    0.00000000
     atom   16 type  3   force =     0.00000000    0.00000000    0.00000000
     atom   17 type  3   force =     0.00000000    0.00000000    0.00000000
     atom   18 type  3   force =     0.00000000    0.00000000    0.00000000
     atom   19 type  3   force =     0.00000000    0.00000000    0.00000000
     atom   20 type  4   force =     0.00000000    0.00000000    0.00000000
     The SCF correction term to forces
     atom    1 type  1   force =    -0.00001562    0.00007157    0.00002209
     atom    2 type  1   force =    -0.00004682    0.00003492    0.00001709
     atom    3 type  2   force =     0.00000547    0.00002628    0.00001808
     atom    4 type  2   force =    -0.00004169    0.00002242    0.00000349
     atom    5 type  2   force =    -0.00000131    0.00000268    0.00000747
     atom    6 type  2   force =    -0.00005938    0.00004700    0.00000175
     atom    7 type  2   force =     0.00000868    0.00001343    0.00000784
     atom    8 type  2   force =     0.00003543   -0.00000458    0.00001403
     atom    9 type  3   force =     0.00000165    0.00000071    0.00000311
     atom   10 type  3   force =    -0.00000116    0.00000306    0.00000128
     atom   11 type  3   force =    -0.00000592    0.00000055    0.00000033
     atom   12 type  3   force =     0.00000561   -0.00001088    0.00000067
     atom   13 type  3   force =    -0.00000792    0.00000035   -0.00000054
     atom   14 type  3   force =    -0.00000073    0.00000397   -0.00000020
     atom   15 type  3   force =     0.00000082    0.00000200    0.00000092
     atom   16 type  3   force =     0.00000193    0.00000009   -0.00000223
     atom   17 type  3   force =     0.00000431   -0.00000280    0.00000177
     atom   18 type  3   force =     0.00000656    0.00000129    0.00000029
     atom   19 type  3   force =     0.00000465    0.00000054    0.00000418
     atom   20 type  4   force =    -0.00005894   -0.00006459    0.00002305

     Total force =     0.003066     Total SCF correction =     0.000170


     Computing stress (Cartesian axis) and pressure


     negative rho (up, down):  8.893E-04 0.000E+00
          total   stress  (Ry/bohr**3)                   (kbar)     P=       -0.03
  -0.00000007  -0.00000003  -0.00000001           -0.01       -0.00       -0.00
  -0.00000003  -0.00000042  -0.00000006           -0.00       -0.06       -0.01
  -0.00000001  -0.00000006  -0.00000005           -0.00       -0.01       -0.01

     Energy error            =      2.7E-05 Ry
     Gradient error          =      1.3E-03 Ry/Bohr

     number of scf cycles    =  50
     number of bfgs steps    =  49

     energy             old  =    -259.4306322187 Ry
     energy             new  =    -259.4306588548 Ry

     CASE: energy            _new < energy            _old

     new trust radius        =       0.0163176887 bohr

     The maximum number of steps has been reached.

     End of BFGS Geometry Optimization

ATOMIC_POSITIONS (angstrom)
N             9.5567965823        9.9329257145        9.5877967748
N            11.6687373605        9.6003552511        9.9507062983
C             8.1335622593        9.6426861953        9.3531812054
C            10.5174074488        8.9892978856        9.6197642801
C            10.1098402166       11.1658445760        9.9038336042
C            11.4413119245       10.9556224076       10.1274940730
C             7.3816048211        9.3576580887       10.6479939906
C            12.9351516753        8.8780356739       10.1072020154
H             7.7073508943       10.5056270890        8.8250209661
H             8.0963431728        8.7754974566        8.6823429919
H            10.4480297704        7.8505783780        9.5170531099
H             9.5241132867       12.0763849450        9.9299410561
H            12.2319652484       11.6480638976       10.3879775427
H             7.8118805143        8.4881799283       11.1600298362
H             6.3306348209        9.1340314571       10.4222006483
H             7.4129228065       10.2203492913       11.3265931413
H            12.7051982906        7.8022735138       10.0196661152
H            13.6372735632        9.1868310067        9.3234530698
H            13.3589973177        9.0964259415       11.0947934382
Cl           10.9179280259        5.9967313022        9.7698058425



     Writing config-only to output data dir ./plusCL1.save/
     NEW-OLD atomic charge density approx. for the potential

     negative rho (up, down):  8.897E-04 0.000E+00

     Writing all to output data dir ./plusCL1.save/

     init_run     :     25.62s CPU     27.19s WALL (       1 calls)
     electrons    :   8661.28s CPU   9459.09s WALL (      50 calls)
     update_pot   :    306.00s CPU    310.13s WALL (      50 calls)
     forces       :    802.27s CPU    859.36s WALL (      50 calls)
     stress       :   2532.32s CPU   2672.27s WALL (      50 calls)

     Called by init_run:
     wfcinit      :      1.61s CPU      1.70s WALL (       1 calls)
     potinit      :      3.55s CPU      3.81s WALL (       1 calls)
     hinit0       :      2.70s CPU      2.90s WALL (       1 calls)

     Called by electrons:
     c_bands      :   1088.18s CPU   1096.77s WALL (     367 calls)
     sum_band     :   4269.88s CPU   4646.92s WALL (     367 calls)
     v_of_rho     :    706.34s CPU    735.65s WALL (     398 calls)
     newd         :   2745.45s CPU   3091.64s WALL (     398 calls)
     PAW_pot      :     80.70s CPU     81.97s WALL (     448 calls)
     mix_rho      :    123.46s CPU    124.19s WALL (     367 calls)

     Called by c_bands:
     init_us_2    :     17.42s CPU     17.56s WALL (     785 calls)
     init_us_2:cp :     17.42s CPU     17.56s WALL (     785 calls)
     cegterg      :   1059.22s CPU   1067.64s WALL (     367 calls)

     Called by *egterg:
     cdiaghg      :      1.59s CPU      1.68s WALL (    1382 calls)
     h_psi        :    919.89s CPU    927.58s WALL (    1452 calls)
     s_psi        :     29.24s CPU     29.35s WALL (    1452 calls)
     g_psi        :      3.84s CPU      3.87s WALL (    1084 calls)

     Called by h_psi:
     h_psi:calbec :     24.69s CPU     24.82s WALL (    1452 calls)
     vloc_psi     :    857.93s CPU    865.33s WALL (    1452 calls)
     add_vuspsi   :     29.09s CPU     29.19s WALL (    1452 calls)

     General routines
     calbec       :     38.68s CPU     38.89s WALL (    2119 calls)
     fft          :    777.93s CPU    792.72s WALL (    6394 calls)
     ffts         :     19.91s CPU     20.09s WALL (     765 calls)
     fftw         :    579.38s CPU    585.08s WALL (   72261 calls)
     interpolate  :     62.39s CPU     62.81s WALL (     398 calls)

     Parallel routines

     PWSCF        :      3h31m CPU      3h49m WALL


   This run was terminated on:  14:48: 9  18Jun2025            

=------------------------------------------------------------------------------=
   JOB DONE.
=------------------------------------------------------------------------------=
