
     Program PWSCF v.7.3.1 starts on 15Apr2025 at 21:27:35 

     This program is part of the open-source Quantum ESPRESSO suite
     for quantum simulation of materials; please cite
         "P. Giannozzi et al., J. Phys.:Condens. Matter 21 395502 (2009);
         "P. Giannozzi et al., J. Phys.:Condens. Matter 29 465901 (2017);
         "P. Giannozzi et al., J. Chem. Phys. 152 154105 (2020);
          URL http://www.quantum-espresso.org", 
     in publications or presentations arising from this work. More details at
     http://www.quantum-espresso.org/quote

     Parallel version (MPI), running on    64 processors

     MPI processes distributed on     1 nodes
     451536 MiB available memory on the printing compute node when the environment starts
 
     Reading input from pw.in
Warning: card &CELL ignored
Warning: card / ignored
Warning: card ~ ignored
Warning: card ~ ignored
Warning: card ~ ignored
Warning: card ~ ignored
Warning: card ~ ignored

     Current dimensions of program PWSCF are:
     Max number of different atomic species (ntypx) = 10
     Max number of k-points (npk) =  40000
     Max angular momentum in pseudopotentials (lmaxx) =  4
     file C.pbe-n-kjpaw_psl.1.0.0.UPF: wavefunction(s)  2S 2P renormalized
     file Al.pbe-n-kjpaw_psl.1.0.0.UPF: wavefunction(s)  3S 3P renormalized
     file Cl.pbe-n-kjpaw_psl.1.0.0.UPF: wavefunction(s)  3S 3P renormalized
 
     R & G space division:  proc/nbgrp/npool/nimage =      64
     Subspace diagonalization in iterative solution of the eigenvalue problem:
     one sub-group per band group will be used
     scalapack distributed-memory algorithm (size of sub-group:  5*  5 procs)

 
     Parallelization info
     --------------------
     sticks:   dense  smooth     PW     G-vecs:    dense   smooth      PW
     Min        3621    2013    503               459079   190207   23780
     Max        3622    2014    505               459082   190209   23781
     Sum      231789  128845  32249             29381147 12173313 1521951
 
     Using Slab Decomposition
 


     bravais-lattice index     =            0
     lattice parameter (alat)  =      94.4863  a.u.
     unit-cell volume          =  295239.6341 (a.u.)^3
     number of atoms/cell      =          197
     number of atomic types    =            3
     number of electrons       =       799.00
     number of Kohn-Sham states=          480
     kinetic-energy cutoff     =      45.3312  Ry
     charge density cutoff     =     326.2606  Ry
     scf convergence threshold =      1.0E-06
     mixing beta               =       0.7000
     number of iterations used =            8  local-TF  mixing
     energy convergence thresh.=      1.0E-04
     force convergence thresh. =      1.0E-03
     Exchange-correlation= SLA  PW   PBX  PBC
                           (   1   4   3   4   0   0   0)
     nstep                     =          200


     celldm(1)=  94.486306  celldm(2)=   0.000000  celldm(3)=   0.000000
     celldm(4)=   0.000000  celldm(5)=   0.000000  celldm(6)=   0.000000

     crystal axes: (cart. coord. in units of alat)
               a(1) = (   1.000000   0.000000   0.000000 )  
               a(2) = (   0.000000   1.000000   0.000000 )  
               a(3) = (   0.000000   0.000000   0.350000 )  

     reciprocal axes: (cart. coord. in units 2 pi/alat)
               b(1) = (  1.000000  0.000000  0.000000 )  
               b(2) = (  0.000000  1.000000  0.000000 )  
               b(3) = (  0.000000  0.000000  2.857143 )  


     PseudoPot. # 1 for C  read from file:
     /home/elmer.barquero/carbon_nn/pseudo/C.pbe-n-kjpaw_psl.1.0.0.UPF
     MD5 check sum: 5f16ad9a65e90284d1d834d4ab3b0f7d
     Pseudo is Projector augmented-wave + core cor, Zval =  4.0
     Generated using &quot;atomic&quot; code by A. Dal Corso  v.6.3
     Shape of augmentation charge: PSQ
     Using radial grid of 1073 points,  4 beta functions with: 
                l(1) =   0
                l(2) =   0
                l(3) =   1
                l(4) =   1
     Q(r) pseudized with 0 coefficients 


     PseudoPot. # 2 for Al read from file:
     /home/elmer.barquero/carbon_nn/pseudo/Al.pbe-n-kjpaw_psl.1.0.0.UPF
     MD5 check sum: 502b6b27b9c6270cab5dd1084b96fa6d
     Pseudo is Projector augmented-wave + core cor, Zval =  3.0
     Generated using &quot;atomic&quot; code by A. Dal Corso  v.6.3
     Shape of augmentation charge: PSQ
     Using radial grid of 1135 points,  6 beta functions with: 
                l(1) =   0
                l(2) =   0
                l(3) =   1
                l(4) =   1
                l(5) =   2
                l(6) =   2
     Q(r) pseudized with 0 coefficients 


     PseudoPot. # 3 for Cl read from file:
     /home/elmer.barquero/carbon_nn/pseudo/Cl.pbe-n-kjpaw_psl.1.0.0.UPF
     MD5 check sum: 530da96d25dcb7781b0586ca00827062
     Pseudo is Projector augmented-wave + core cor, Zval =  7.0
     Generated using &quot;atomic&quot; code by A. Dal Corso  v.6.3
     Shape of augmentation charge: PSQ
     Using radial grid of 1157 points,  6 beta functions with: 
                l(1) =   0
                l(2) =   0
                l(3) =   1
                l(4) =   1
                l(5) =   2
                l(6) =   2
     Q(r) pseudized with 0 coefficients 


     atomic species   valence    mass     pseudopotential
     C                 4.00    12.01100     C ( 1.00)
     Al                3.00    26.98154     Al( 1.00)
     Cl                7.00    35.45000     Cl( 1.00)

     No symmetry found



   Cartesian axes

     site n.     atom                  positions (alat units)
         1        C      tau(   1) = (   0.6087439   0.4368363   0.0220164  )
         2        C      tau(   2) = (   0.6016427   0.5149120   0.1479251  )
         3        C      tau(   3) = (   0.5446482   0.5775385   0.0003594  )
         4        C      tau(   4) = (   0.4636858   0.6013250   0.0003423  )
         5        C      tau(   5) = (   0.3833236   0.5760316   0.0002793  )
         6        C      tau(   6) = (   0.3381571   0.5054522   0.0002625  )
         7        C      tau(   7) = (   0.3502194   0.4222491   0.0002434  )
         8        C      tau(   8) = (   0.4072388   0.3596472   0.0002361  )
         9        C      tau(   9) = (   0.4861825   0.3283813   0.0002169  )
        10        C      tau(  10) = (   0.5710002   0.3324763   0.0001877  )
        11        C      tau(  11) = (   0.6449573   0.3736088   0.0001728  )
        12        C      tau(  12) = (   0.6854474   0.4474079   0.0001397  )
        13        C      tau(  13) = (   0.6799082   0.5318598   0.0001301  )
        14        C      tau(  14) = (   0.6511548   0.6122100   0.0001070  )
        15        C      tau(  15) = (   0.6188216   0.6911619   0.0001761  )
        16        C      tau(  16) = (   0.5799057   0.7676895   0.1479901  )
        17        C      tau(  17) = (   0.6146234   0.4589080   0.0039973  )
        18        C      tau(  18) = (   0.5865709   0.5391851   0.1480996  )
        19        C      tau(  19) = (   0.5192575   0.5904013   0.0003588  )
        20        C      tau(  20) = (   0.4352926   0.5986431   0.0003122  )
        21        C      tau(  21) = (   0.3626303   0.5564385   0.0002741  )
        22        C      tau(  22) = (   0.3358251   0.4770575   0.0002487  )
        23        C      tau(  23) = (   0.3654956   0.3981938   0.0002438  )
        24        C      tau(  24) = (   0.4319718   0.3455063   0.0002297  )
        25        C      tau(  25) = (   0.5145516   0.3257077   0.0002059  )
        26        C      tau(  26) = (   0.5978247   0.3420628   0.0001800  )
        27        C      tau(  27) = (   0.6634197   0.3952844   0.0001664  )
        28        C      tau(  28) = (   0.6882050   0.4757249   0.0001313  )
        29        C      tau(  29) = (   0.6714436   0.5590231   0.0001217  )
        30        C      tau(  30) = (   0.6405062   0.6386059   0.0001037  )
        31        C      tau(  31) = (   0.6069723   0.7170599   0.0002286  )
        32        C      tau(  32) = (   0.5649640   0.7925049   0.1473317  )
        33        C      tau(  33) = (   0.6199751   0.4788678   0.0247973  )
        34        C      tau(  34) = (   0.5782262   0.5508711   0.0247983  )
        35        C      tau(  35) = (   0.5058542   0.5949136   0.0250550  )
        36        C      tau(  36) = (   0.4214342   0.5951645   0.0249738  )
        37        C      tau(  37) = (   0.3541992   0.5449237   0.0249570  )
        38        C      tau(  38) = (   0.3371386   0.4628440   0.0249328  )
        39        C      tau(  39) = (   0.3747225   0.3873108   0.0249286  )
        40        C      tau(  40) = (   0.4450410   0.3397992   0.0249122  )
        41        C      tau(  41) = (   0.5288175   0.3258459   0.0248865  )
        42        C      tau(  42) = (   0.6106202   0.3483688   0.0248611  )
        43        C      tau(  43) = (   0.6711636   0.4072658   0.0248449  )
        44        C      tau(  44) = (   0.6878945   0.4899411   0.0248173  )
        45        C      tau(  45) = (   0.6666466   0.5724148   0.0247995  )
        46        C      tau(  46) = (   0.6352265   0.6517596   0.0247939  )
        47        C      tau(  47) = (   0.6004982   0.7301112   0.0247752  )
        48        C      tau(  48) = (   0.5570716   0.8050262   0.0247782  )
        49        C      tau(  49) = (   0.6106278   0.5052146   0.0247078  )
        50        C      tau(  50) = (   0.5567463   0.5696595   0.0249244  )
        51        C      tau(  51) = (   0.4778900   0.6003761   0.0250356  )
        52        C      tau(  52) = (   0.3952842   0.5838290   0.0249644  )
        53        C      tau(  53) = (   0.3418920   0.5192305   0.0249493  )
        54        C      tau(  54) = (   0.3444517   0.4353030   0.0249311  )
        55        C      tau(  55) = (   0.3957001   0.3680347   0.0249222  )
        56        C      tau(  56) = (   0.4722079   0.3312163   0.0249046  )
        57        C      tau(  57) = (   0.5571121   0.3292217   0.0248727  )
        58        C      tau(  58) = (   0.6343602   0.3641105   0.0248683  )
        59        C      tau(  59) = (   0.6822517   0.4335190   0.0248235  )
        60        C      tau(  60) = (   0.6834946   0.5180723   0.0248069  )
        61        C      tau(  61) = (   0.6564417   0.5990098   0.0247934  )
        62        C      tau(  62) = (   0.6244295   0.6780832   0.0247923  )
        63        C      tau(  63) = (   0.5869297   0.7553666   0.0247685  )
        64        C      tau(  64) = (   0.5427765   0.8276104   0.0247725  )
        65        C      tau(  65) = (   0.6163666   0.4385241   0.0496445  )
        66        C      tau(  66) = (   0.6050118   0.5182443   0.0496698  )
        67        C      tau(  67) = (   0.5449287   0.5775411   0.0496928  )
        68        C      tau(  68) = (   0.4636290   0.6009070   0.0496843  )
        69        C      tau(  69) = (   0.3833247   0.5760235   0.0496428  )
        70        C      tau(  70) = (   0.3381637   0.5054529   0.0496238  )
        71        C      tau(  71) = (   0.3502434   0.4222609   0.0496093  )
        72        C      tau(  72) = (   0.4072348   0.3596473   0.0496001  )
        73        C      tau(  73) = (   0.4861875   0.3283902   0.0495802  )
        74        C      tau(  74) = (   0.5710007   0.3324707   0.0495481  )
        75        C      tau(  75) = (   0.6451717   0.3734448   0.0495301  )
        76        C      tau(  76) = (   0.6858430   0.4473429   0.0494855  )
        77        C      tau(  77) = (   0.6800705   0.5318914   0.0494773  )
        78        C      tau(  78) = (   0.6512125   0.6122392   0.0494713  )
        79        C      tau(  79) = (   0.6189986   0.6912453   0.0494008  )
        80        C      tau(  80) = (   0.5801769   0.7678407   0.0496320  )
        81        C      tau(  81) = (   0.6248620   0.4665705   0.0496565  )
        82        C      tau(  82) = (   0.5881320   0.5408560   0.0496700  )
        83        C      tau(  83) = (   0.5193390   0.5900359   0.0497047  )
        84        C      tau(  84) = (   0.4352881   0.5985097   0.0496655  )
        85        C      tau(  85) = (   0.3626239   0.5564475   0.0496377  )
        86        C      tau(  86) = (   0.3358115   0.4770572   0.0496129  )
        87        C      tau(  87) = (   0.3654944   0.3981881   0.0496088  )
        88        C      tau(  88) = (   0.4319712   0.3455075   0.0495931  )
        89        C      tau(  89) = (   0.5145543   0.3256944   0.0495707  )
        90        C      tau(  90) = (   0.5978352   0.3420417   0.0495353  )
        91        C      tau(  91) = (   0.6637399   0.3950675   0.0495163  )
        92        C      tau(  92) = (   0.6886549   0.4756973   0.0494812  )
        93        C      tau(  93) = (   0.6714971   0.5590289   0.0494726  )
        94        C      tau(  94) = (   0.6406061   0.6386464   0.0494772  )
        95        C      tau(  95) = (   0.6072403   0.7171914   0.0493233  )
        96        C      tau(  96) = (   0.5651096   0.7925713   0.0502985  )
        97        C      tau(  97) = (   0.6199685   0.4788682   0.0745242  )
        98        C      tau(  98) = (   0.5781661   0.5508003   0.0745566  )
        99        C      tau(  99) = (   0.5057263   0.5944503   0.0743506  )
       100        C      tau( 100) = (   0.4214283   0.5951168   0.0743510  )
       101        C      tau( 101) = (   0.3541893   0.5449283   0.0743187  )
       102        C      tau( 102) = (   0.3371402   0.4628457   0.0742913  )
       103        C      tau( 103) = (   0.3747150   0.3873009   0.0742911  )
       104        C      tau( 104) = (   0.4450364   0.3398003   0.0742725  )
       105        C      tau( 105) = (   0.5288143   0.3258525   0.0742502  )
       106        C      tau( 106) = (   0.6106151   0.3483699   0.0742108  )
       107        C      tau( 107) = (   0.6711671   0.4072648   0.0741820  )
       108        C      tau( 108) = (   0.6879052   0.4899463   0.0741546  )
       109        C      tau( 109) = (   0.6666532   0.5724346   0.0741599  )
       110        C      tau( 110) = (   0.6353274   0.6518881   0.0741463  )
       111        C      tau( 111) = (   0.6013814   0.7298700   0.0739228  )
       112        C      tau( 112) = (   0.5586003   0.8034752   0.0750620  )
       113        C      tau( 113) = (   0.6106147   0.5052083   0.0746304  )
       114        C      tau( 114) = (   0.5566321   0.5694668   0.0744506  )
       115        C      tau( 115) = (   0.4778231   0.5999702   0.0743544  )
       116        C      tau( 116) = (   0.3952788   0.5838185   0.0743362  )
       117        C      tau( 117) = (   0.3418880   0.5192327   0.0743108  )
       118        C      tau( 118) = (   0.3444494   0.4353052   0.0742914  )
       119        C      tau( 119) = (   0.3956893   0.3680188   0.0742837  )
       120        C      tau( 120) = (   0.4722058   0.3312218   0.0742650  )
       121        C      tau( 121) = (   0.5571102   0.3292244   0.0742324  )
       122        C      tau( 122) = (   0.6343550   0.3641135   0.0742003  )
       123        C      tau( 123) = (   0.6822417   0.4335159   0.0741638  )
       124        C      tau( 124) = (   0.6835098   0.5180664   0.0741624  )
       125        C      tau( 125) = (   0.6564660   0.5990072   0.0741627  )
       126        C      tau( 126) = (   0.6245906   0.6782352   0.0741195  )
       127        C      tau( 127) = (   0.5881080   0.7549452   0.0737799  )
       128        C      tau( 128) = (   0.5441627   0.8262417   0.0862270  )
       129        C      tau( 129) = (   0.6087263   0.4368616   0.0772862  )
       130        C      tau( 130) = (   0.6016287   0.5149011   0.0995157  )
       131        C      tau( 131) = (   0.5445270   0.5772888   0.0990006  )
       132        C      tau( 132) = (   0.4636539   0.6010435   0.0990148  )
       133        C      tau( 133) = (   0.3833169   0.5760299   0.0990155  )
       134        C      tau( 134) = (   0.3381690   0.5054518   0.0989894  )
       135        C      tau( 135) = (   0.3502295   0.4222542   0.0989737  )
       136        C      tau( 136) = (   0.4072315   0.3596404   0.0989631  )
       137        C      tau( 137) = (   0.4861826   0.3283891   0.0989446  )
       138        C      tau( 138) = (   0.5709998   0.3324691   0.0989077  )
       139        C      tau( 139) = (   0.6449630   0.3736079   0.0988864  )
       140        C      tau( 140) = (   0.6854422   0.4474012   0.0988395  )
       141        C      tau( 141) = (   0.6799233   0.5318619   0.0988327  )
       142        C      tau( 142) = (   0.6511884   0.6122415   0.0988290  )
       143        C      tau( 143) = (   0.6190475   0.6912909   0.0988238  )
       144        C      tau( 144) = (   0.5814857   0.7664070   0.0987911  )
       145        C      tau( 145) = (   0.6146194   0.4589045   0.0953186  )
       146        C      tau( 146) = (   0.5865523   0.5391577   0.0993488  )
       147        C      tau( 147) = (   0.5191251   0.5900337   0.0990081  )
       148        C      tau( 148) = (   0.4352823   0.5985524   0.0990222  )
       149        C      tau( 149) = (   0.3626308   0.5564333   0.0990051  )
       150        C      tau( 150) = (   0.3358413   0.4770601   0.0989775  )
       151        C      tau( 151) = (   0.3655009   0.3981976   0.0989741  )
       152        C      tau( 152) = (   0.4319693   0.3455059   0.0989557  )
       153        C      tau( 153) = (   0.5145492   0.3257153   0.0989344  )
       154        C      tau( 154) = (   0.5978229   0.3420526   0.0988905  )
       155        C      tau( 155) = (   0.6634307   0.3952825   0.0988682  )
       156        C      tau( 156) = (   0.6882159   0.4757237   0.0988359  )
       157        C      tau( 157) = (   0.6714560   0.5590407   0.0988331  )
       158        C      tau( 158) = (   0.6405888   0.6386844   0.0988245  )
       159        C      tau( 159) = (   0.6074623   0.7172243   0.0988117  )
       160        C      tau( 160) = (   0.5672185   0.7899169   0.0988055  )
       161        C      tau( 161) = (   0.6114992   0.4699765   0.1237167  )
       162        C      tau( 162) = (   0.5768604   0.5499744   0.1237251  )
       163        C      tau( 163) = (   0.5057765   0.5949016   0.1237234  )
       164        C      tau( 164) = (   0.4214373   0.5951664   0.1237153  )
       165        C      tau( 165) = (   0.3541942   0.5449195   0.1236855  )
       166        C      tau( 166) = (   0.3371373   0.4628441   0.1236589  )
       167        C      tau( 167) = (   0.3747310   0.3873165   0.1236543  )
       168        C      tau( 168) = (   0.4450347   0.3397992   0.1236391  )
       169        C      tau( 169) = (   0.5288135   0.3258882   0.1236140  )
       170        C      tau( 170) = (   0.6105718   0.3484045   0.1235782  )
       171        C      tau( 171) = (   0.6708290   0.4074318   0.1235581  )
       172        C      tau( 172) = (   0.6875322   0.4899321   0.1235218  )
       173        C      tau( 173) = (   0.6666246   0.5724241   0.1235135  )
       174        C      tau( 174) = (   0.6351883   0.6518283   0.1235095  )
       175        C      tau( 175) = (   0.6010642   0.7296970   0.1236880  )
       176        C      tau( 176) = (   0.5585069   0.8034285   0.1225613  )
       177        C      tau( 177) = (   0.6058822   0.4991514   0.1237214  )
       178        C      tau( 178) = (   0.5561471   0.5693049   0.1237199  )
       179        C      tau( 179) = (   0.4778820   0.6004855   0.1237227  )
       180        C      tau( 180) = (   0.3952792   0.5838439   0.1236998  )
       181        C      tau( 181) = (   0.3418646   0.5192310   0.1236768  )
       182        C      tau( 182) = (   0.3444220   0.4352919   0.1236565  )
       183        C      tau( 183) = (   0.3957010   0.3680272   0.1236509  )
       184        C      tau( 184) = (   0.4722038   0.3312175   0.1236300  )
       185        C      tau( 185) = (   0.5571101   0.3292469   0.1236004  )
       186        C      tau( 186) = (   0.6342422   0.3642248   0.1235771  )
       187        C      tau( 187) = (   0.6818999   0.4336324   0.1235393  )
       188        C      tau( 188) = (   0.6832693   0.5180479   0.1235206  )
       189        C      tau( 189) = (   0.6564289   0.5989957   0.1235023  )
       190        C      tau( 190) = (   0.6244107   0.6781656   0.1235371  )
       191        C      tau( 191) = (   0.5877521   0.7547451   0.1238109  )
       192        C      tau( 192) = (   0.5441768   0.8262565   0.1113848  )
       193        Al     tau( 193) = (   0.5385073   0.6716540   0.0640720  )
       194        Cl     tau( 194) = (   0.5540224   0.6743141   0.0239399  )
       195        Cl     tau( 195) = (   0.5404056   0.7092286   0.0850823  )
       196        Cl     tau( 196) = (   0.5627465   0.6419980   0.0853179  )
       197        Cl     tau( 197) = (   0.4969876   0.6594448   0.0627506  )

     --------------------------------------------
     DFT-D3 Dispersion Correction (3-body terms):
     --------------------------------------------
       Reference C6 values for interpolation: 

         atom   Coordination number   C6
         C          0.000            98.23
         C          0.987            86.49
         C          1.998            58.72
         C          2.999            51.56
         C          3.984            36.41
         Al         0.000          1081.08
         Al         0.965           875.51
         Al         1.931           513.50
         Al         2.915           307.19
         Cl         0.000           184.69
         Cl         0.997           180.80

       Values used:

         atom   Coordination number  R0_AB[au]  C6      C8
         C          2.436            2.750     55.97   1618.67
         C          2.139            2.750     58.45   1690.52
         C          2.150            2.750     58.40   1689.17
         C          2.158            2.750     58.37   1688.23
         C          2.158            2.750     58.37   1688.25
         C          2.158            2.750     58.37   1688.18
         C          2.157            2.750     58.38   1688.35
         C          2.156            2.750     58.38   1688.46
         C          2.156            2.750     58.38   1688.48
         C          2.156            2.750     58.38   1688.45
         C          2.159            2.750     58.37   1688.14
         C          2.161            2.750     58.36   1687.84
         C          2.158            2.750     58.37   1688.17
         C          2.157            2.750     58.38   1688.35
         C          2.160            2.750     58.36   1688.00
         C          2.152            2.750     58.40   1689.00
         C          2.148            2.750     58.41   1689.45
         C          2.144            2.750     58.43   1689.93
         C          2.158            2.750     58.37   1688.19
         C          2.158            2.750     58.37   1688.26
         C          2.159            2.750     58.37   1688.17
         C          2.158            2.750     58.37   1688.24
         C          2.157            2.750     58.38   1688.40
         C          2.156            2.750     58.38   1688.48
         C          2.156            2.750     58.38   1688.49
         C          2.157            2.750     58.38   1688.37
         C          2.160            2.750     58.36   1687.96
         C          2.160            2.750     58.36   1687.92
         C          2.157            2.750     58.38   1688.34
         C          2.158            2.750     58.37   1688.29
         C          2.151            2.750     58.40   1689.13
         C          2.119            2.750     58.53   1692.80
         C          3.392            2.750     46.44   1343.14
         C          2.204            2.750     58.15   1681.88
         C          3.255            2.750     49.33   1426.83
         C          3.251            2.750     49.40   1428.78
         C          3.252            2.750     49.38   1428.12
         C          3.251            2.750     49.40   1428.63
         C          3.249            2.750     49.43   1429.61
         C          3.248            2.750     49.44   1429.95
         C          3.248            2.750     49.45   1430.07
         C          3.250            2.750     49.42   1429.19
         C          3.255            2.750     49.34   1427.12
         C          3.254            2.750     49.35   1427.17
         C          3.249            2.750     49.42   1429.34
         C          3.252            2.750     49.38   1428.20
         C          3.199            2.750     50.06   1447.96
         C          2.079            2.750     58.68   1697.03
         C          2.209            2.750     58.13   1681.12
         C          3.200            2.750     50.05   1447.59
         C          3.255            2.750     49.33   1426.78
         C          3.251            2.750     49.39   1428.53
         C          3.252            2.750     49.38   1428.07
         C          3.250            2.750     49.41   1429.04
         C          3.248            2.750     49.44   1429.83
         C          3.248            2.750     49.44   1430.03
         C          3.248            2.750     49.44   1429.90
         C          3.251            2.750     49.39   1428.52
         C          3.255            2.750     49.34   1426.95
         C          3.252            2.750     49.38   1428.17
         C          3.249            2.750     49.43   1429.63
         C          3.256            2.750     49.32   1426.53
         C          2.189            2.750     58.23   1684.17
         C          1.065            2.750     85.68   2477.94
         C          3.234            2.750     49.64   1435.58
         C          3.266            2.750     49.17   1422.09
         C          3.305            2.750     48.47   1401.78
         C          3.314            2.750     48.29   1396.49
         C          3.306            2.750     48.44   1401.07
         C          3.307            2.750     48.43   1400.69
         C          3.305            2.750     48.48   1401.99
         C          3.303            2.750     48.51   1402.90
         C          3.303            2.750     48.52   1403.17
         C          3.303            2.750     48.50   1402.79
         C          3.306            2.750     48.44   1401.03
         C          3.311            2.750     48.36   1398.56
         C          3.306            2.750     48.44   1400.96
         C          3.304            2.750     48.48   1402.21
         C          3.312            2.750     48.33   1397.77
         C          3.241            2.750     49.54   1432.83
         C          3.711            2.750     38.46   1112.30
         C          3.256            2.750     49.33   1426.60
         C          3.312            2.750     48.33   1397.69
         C          3.308            2.750     48.41   1400.00
         C          3.307            2.750     48.43   1400.65
         C          3.306            2.750     48.44   1401.09
         C          3.304            2.750     48.49   1402.48
         C          3.303            2.750     48.51   1403.03
         C          3.302            2.750     48.52   1403.20
         C          3.304            2.750     48.48   1402.26
         C          3.309            2.750     48.39   1399.63
         C          3.309            2.750     48.38   1399.23
         C          3.305            2.750     48.47   1401.94
         C          3.305            2.750     48.46   1401.52
         C          3.312            2.750     48.34   1397.99
         C          3.209            2.750     49.96   1444.90
         C          3.513            2.750     42.90   1240.87
         C          3.304            2.750     48.50   1402.61
         C          3.322            2.750     48.13   1392.03
         C          3.307            2.750     48.43   1400.75
         C          3.307            2.750     48.43   1400.66
         C          3.306            2.750     48.45   1401.29
         C          3.304            2.750     48.50   1402.59
         C          3.303            2.750     48.51   1403.06
         C          3.303            2.750     48.52   1403.17
         C          3.305            2.750     48.48   1402.05
         C          3.309            2.750     48.38   1399.30
         C          3.309            2.750     48.38   1399.35
         C          3.304            2.750     48.48   1402.07
         C          3.307            2.750     48.42   1400.40
         C          3.323            2.750     48.10   1391.21
         C          3.355            2.750     47.37   1370.00
         C          3.314            2.750     48.29   1396.53
         C          3.308            2.750     48.42   1400.28
         C          3.324            2.750     48.08   1390.68
         C          3.307            2.750     48.44   1400.89
         C          3.307            2.750     48.42   1400.51
         C          3.305            2.750     48.47   1401.82
         C          3.303            2.750     48.51   1402.91
         C          3.303            2.750     48.51   1403.11
         C          3.303            2.750     48.51   1402.95
         C          3.306            2.750     48.45   1401.27
         C          3.310            2.750     48.37   1399.01
         C          3.307            2.750     48.43   1400.57
         C          3.304            2.750     48.49   1402.46
         C          3.310            2.750     48.37   1399.05
         C          3.330            2.750     47.95   1386.90
         C          2.310            2.750     57.41   1660.46
         C          2.448            2.750     55.80   1613.97
         C          3.310            2.750     48.37   1399.04
         C          3.265            2.750     49.19   1422.59
         C          3.255            2.750     49.34   1426.87
         C          3.251            2.750     49.39   1428.55
         C          3.252            2.750     49.38   1428.19
         C          3.250            2.750     49.42   1429.23
         C          3.248            2.750     49.44   1429.86
         C          3.248            2.750     49.45   1430.08
         C          3.249            2.750     49.43   1429.72
         C          3.252            2.750     49.38   1428.11
         C          3.256            2.750     49.32   1426.52
         C          3.252            2.750     49.38   1428.28
         C          3.249            2.750     49.43   1429.57
         C          3.256            2.750     49.32   1426.49
         C          3.327            2.750     48.02   1388.73
         C          3.188            2.750     50.18   1451.29
         C          3.308            2.750     48.41   1399.99
         C          3.263            2.750     49.21   1423.28
         C          3.252            2.750     49.38   1428.05
         C          3.252            2.750     49.38   1428.18
         C          3.252            2.750     49.39   1428.42
         C          3.249            2.750     49.43   1429.58
         C          3.248            2.750     49.44   1429.94
         C          3.248            2.750     49.45   1430.08
         C          3.250            2.750     49.42   1429.28
         C          3.254            2.750     49.35   1427.26
         C          3.255            2.750     49.33   1426.85
         C          3.250            2.750     49.41   1428.99
         C          3.250            2.750     49.41   1429.14
         C          3.261            2.750     49.25   1424.39
         C          3.573            2.750     41.24   1192.59
         C          2.089            2.750     58.64   1696.03
         C          3.207            2.750     49.98   1445.39
         C          2.161            2.750     58.36   1687.86
         C          2.158            2.750     58.37   1688.29
         C          2.158            2.750     58.37   1688.17
         C          2.158            2.750     58.37   1688.25
         C          2.157            2.750     58.38   1688.41
         C          2.156            2.750     58.38   1688.48
         C          2.156            2.750     58.38   1688.49
         C          2.157            2.750     58.38   1688.31
         C          2.160            2.750     58.36   1687.98
         C          2.160            2.750     58.36   1687.92
         C          2.158            2.750     58.37   1688.29
         C          2.158            2.750     58.37   1688.23
         C          2.209            2.750     58.13   1681.16
         C          3.311            2.750     48.34   1398.18
         C          3.162            2.750     50.43   1458.58
         C          2.211            2.750     58.12   1680.87
         C          2.159            2.750     58.37   1688.07
         C          2.158            2.750     58.37   1688.22
         C          2.159            2.750     58.37   1688.17
         C          2.157            2.750     58.38   1688.33
         C          2.156            2.750     58.38   1688.46
         C          2.156            2.750     58.38   1688.48
         C          2.156            2.750     58.38   1688.45
         C          2.158            2.750     58.37   1688.23
         C          2.161            2.750     58.36   1687.88
         C          2.159            2.750     58.37   1688.08
         C          2.157            2.750     58.38   1688.35
         C          2.159            2.750     58.37   1688.12
         C          3.212            2.750     49.92   1443.69
         C          2.305            2.750     57.46   1661.85
         Al         3.991            3.789    307.19  29441.36
         Cl         1.073            2.933    180.84   7545.13
         Cl         1.084            2.933    180.83   7544.99
         Cl         1.081            2.933    180.83   7545.03
         Cl         1.087            2.933    180.83   7544.96

         Molecular C6 ( Ry / a.u.^6 ) =   2120039.11


     number of k points=     1  Methfessel-Paxton smearing, width (Ry)=  0.0200
                       cart. coord. in units 2pi/alat
        k(    1) = (   0.0000000   0.0000000   0.0000000), wk =   2.0000000

     Dense  grid: 29381147 G-vectors     FFT dimensions: ( 576, 576, 192)

     Smooth grid: 12173313 G-vectors     FFT dimensions: ( 405, 405, 144)

     Estimated max dynamical RAM per process >       6.23 GB

     Estimated total dynamical RAM >     398.85 GB

     Check: negative core charge=   -0.000001

     Initial potential from superposition of free atoms

     starting charge     798.9897, renormalised to     799.0000

     negative rho (up, down):  1.970E-02 0.000E+00
     Starting wfcs are  788 randomized atomic wfcs
     Checking if some PAW data can be deallocated... 

     total cpu time spent up to now is       85.2 secs

     Self-consistent Calculation

     iteration #  1     ecut=    45.33 Ry     beta= 0.70
     Davidson diagonalization with overlap
     ethr =  1.00E-02,  avg # of iterations =  2.0

     negative rho (up, down):  1.495E-02 0.000E+00

     total cpu time spent up to now is      227.3 secs

     total energy              =   -3884.79883152 Ry
     estimated scf accuracy    <      19.77990578 Ry

     iteration #  2     ecut=    45.33 Ry     beta= 0.70
     Davidson diagonalization with overlap
     ethr =  2.48E-03,  avg # of iterations =  2.0

     negative rho (up, down):  1.243E-02 0.000E+00

     total cpu time spent up to now is      338.9 secs

     total energy              =   -3883.94307011 Ry
     estimated scf accuracy    <      15.63602423 Ry

     iteration #  3     ecut=    45.33 Ry     beta= 0.70
     Davidson diagonalization with overlap
     ethr =  1.96E-03,  avg # of iterations =  2.0

     negative rho (up, down):  4.800E-03 0.000E+00

     total cpu time spent up to now is      449.6 secs

     total energy              =   -3884.58756819 Ry
     estimated scf accuracy    <       6.61397423 Ry

     iteration #  4     ecut=    45.33 Ry     beta= 0.70
     Davidson diagonalization with overlap
     ethr =  8.28E-04,  avg # of iterations =  2.0

     negative rho (up, down):  3.128E-03 0.000E+00

     total cpu time spent up to now is      561.2 secs

     total energy              =   -3884.80423406 Ry
     estimated scf accuracy    <       2.68734861 Ry

     iteration #  5     ecut=    45.33 Ry     beta= 0.70
     Davidson diagonalization with overlap
     ethr =  3.36E-04,  avg # of iterations =  1.0

     negative rho (up, down):  1.932E-03 0.000E+00

     total cpu time spent up to now is      667.0 secs

     total energy              =   -3884.80962491 Ry
     estimated scf accuracy    <       1.16509394 Ry

     iteration #  6     ecut=    45.33 Ry     beta= 0.70
     Davidson diagonalization with overlap
     ethr =  1.46E-04,  avg # of iterations =  2.0

     negative rho (up, down):  4.971E-03 0.000E+00

     total cpu time spent up to now is      779.0 secs

     total energy              =   -3884.76775715 Ry
     estimated scf accuracy    <       1.30434175 Ry

     iteration #  7     ecut=    45.33 Ry     beta= 0.70
     Davidson diagonalization with overlap
     ethr =  1.46E-04,  avg # of iterations =  1.0

     negative rho (up, down):  2.008E-02 0.000E+00

     total cpu time spent up to now is      884.4 secs

     total energy              =   -3884.74001628 Ry
     estimated scf accuracy    <       0.49397958 Ry

     iteration #  8     ecut=    45.33 Ry     beta= 0.70
     Davidson diagonalization with overlap
     ethr =  6.18E-05,  avg # of iterations =  2.0

     negative rho (up, down):  1.421E-02 0.000E+00

     total cpu time spent up to now is      996.2 secs

     total energy              =   -3884.77764618 Ry
     estimated scf accuracy    <       2.76969105 Ry

     iteration #  9     ecut=    45.33 Ry     beta= 0.70
     Davidson diagonalization with overlap
     ethr =  6.18E-05,  avg # of iterations =  2.0

     negative rho (up, down):  1.189E-02 0.000E+00

     total cpu time spent up to now is     1107.9 secs

     total energy              =   -3884.75764230 Ry
     estimated scf accuracy    <       1.71913711 Ry

     iteration # 10     ecut=    45.33 Ry     beta= 0.70
     Davidson diagonalization with overlap
     ethr =  6.18E-05,  avg # of iterations =  1.0

     negative rho (up, down):  1.541E-02 0.000E+00

     total cpu time spent up to now is     1213.6 secs

     total energy              =   -3884.76419229 Ry
     estimated scf accuracy    <       0.21876093 Ry

     iteration # 11     ecut=    45.33 Ry     beta= 0.70
     Davidson diagonalization with overlap
     ethr =  2.74E-05,  avg # of iterations =  2.0

     negative rho (up, down):  1.728E-02 0.000E+00

     total cpu time spent up to now is     1325.7 secs

     total energy              =   -3884.77022685 Ry
     estimated scf accuracy    <       0.50413410 Ry

     iteration # 12     ecut=    45.33 Ry     beta= 0.70
     Davidson diagonalization with overlap
     ethr =  2.74E-05,  avg # of iterations =  2.0

     negative rho (up, down):  1.270E-02 0.000E+00

     total cpu time spent up to now is     1437.7 secs

     total energy              =   -3884.75771504 Ry
     estimated scf accuracy    <       0.59759576 Ry

     iteration # 13     ecut=    45.33 Ry     beta= 0.70
     Davidson diagonalization with overlap
     ethr =  2.74E-05,  avg # of iterations =  1.0

     negative rho (up, down):  4.008E-02 0.000E+00

     total cpu time spent up to now is     1543.2 secs

     total energy              =   -3884.76293211 Ry
     estimated scf accuracy    <       0.07450120 Ry

     iteration # 14     ecut=    45.33 Ry     beta= 0.70
     Davidson diagonalization with overlap
     ethr =  9.32E-06,  avg # of iterations = 12.0

     negative rho (up, down):  9.170E-02 0.000E+00

     total cpu time spent up to now is     1664.6 secs

     total energy              =   -3884.76255382 Ry
     estimated scf accuracy    <       0.13732927 Ry

     iteration # 15     ecut=    45.33 Ry     beta= 0.70
     Davidson diagonalization with overlap
     ethr =  9.32E-06,  avg # of iterations =  1.0

     negative rho (up, down):  1.054E-01 0.000E+00

     total cpu time spent up to now is     1770.3 secs

     total energy              =   -3884.76103502 Ry
     estimated scf accuracy    <       0.09338141 Ry

     iteration # 16     ecut=    45.33 Ry     beta= 0.70
     Davidson diagonalization with overlap
     ethr =  9.32E-06,  avg # of iterations =  1.0

     negative rho (up, down):  2.802E-01 0.000E+00

     total cpu time spent up to now is     1875.6 secs

     total energy              =   -3884.75959727 Ry
     estimated scf accuracy    <       0.05691313 Ry

     iteration # 17     ecut=    45.33 Ry     beta= 0.70
     Davidson diagonalization with overlap
     ethr =  7.12E-06,  avg # of iterations =  1.0

     negative rho (up, down):  2.432E-01 0.000E+00

     total cpu time spent up to now is     1981.4 secs

     total energy              =   -3884.75979493 Ry
     estimated scf accuracy    <       0.07034516 Ry

     iteration # 18     ecut=    45.33 Ry     beta= 0.70
     Davidson diagonalization with overlap
     ethr =  7.12E-06,  avg # of iterations =  1.0

     negative rho (up, down):  2.026E-01 0.000E+00

     total cpu time spent up to now is     2086.6 secs

     total energy              =   -3884.75925523 Ry
     estimated scf accuracy    <       0.04201241 Ry

     iteration # 19     ecut=    45.33 Ry     beta= 0.70
     Davidson diagonalization with overlap
     ethr =  5.26E-06,  avg # of iterations =  1.0

     negative rho (up, down):  2.548E-01 0.000E+00

     total cpu time spent up to now is     2192.3 secs

     total energy              =   -3884.75814876 Ry
     estimated scf accuracy    <       0.04720386 Ry

     iteration # 20     ecut=    45.33 Ry     beta= 0.70
     Davidson diagonalization with overlap
     ethr =  5.26E-06,  avg # of iterations =  1.0

     negative rho (up, down):  2.241E-01 0.000E+00

     total cpu time spent up to now is     2297.3 secs

     total energy              =   -3884.75711898 Ry
     estimated scf accuracy    <       0.02527610 Ry

     iteration # 21     ecut=    45.33 Ry     beta= 0.70
     Davidson diagonalization with overlap
     ethr =  3.16E-06,  avg # of iterations =  1.0

     negative rho (up, down):  6.754E-02 0.000E+00

     total cpu time spent up to now is     2403.2 secs

     total energy              =   -3884.75262430 Ry
     estimated scf accuracy    <       0.03270825 Ry

     iteration # 22     ecut=    45.33 Ry     beta= 0.70
     Davidson diagonalization with overlap
     ethr =  3.16E-06,  avg # of iterations =  1.0

     negative rho (up, down):  1.006E-01 0.000E+00

     total cpu time spent up to now is     2508.5 secs

     total energy              =   -3884.75286309 Ry
     estimated scf accuracy    <       0.00960225 Ry

     iteration # 23     ecut=    45.33 Ry     beta= 0.70
     Davidson diagonalization with overlap
     ethr =  1.20E-06,  avg # of iterations =  2.0

     negative rho (up, down):  9.344E-02 0.000E+00

     total cpu time spent up to now is     2620.5 secs

     total energy              =   -3884.75213399 Ry
     estimated scf accuracy    <       0.01037923 Ry

     iteration # 24     ecut=    45.33 Ry     beta= 0.70
     Davidson diagonalization with overlap
     ethr =  1.20E-06,  avg # of iterations =  1.0

     negative rho (up, down):  1.162E-01 0.000E+00

     total cpu time spent up to now is     2725.7 secs

     total energy              =   -3884.75178692 Ry
     estimated scf accuracy    <       0.00419087 Ry

     iteration # 25     ecut=    45.33 Ry     beta= 0.70
     Davidson diagonalization with overlap
     ethr =  5.25E-07,  avg # of iterations =  1.0

     negative rho (up, down):  1.005E-01 0.000E+00

     total cpu time spent up to now is     2831.5 secs

     total energy              =   -3884.75169331 Ry
     estimated scf accuracy    <       0.00494510 Ry

     iteration # 26     ecut=    45.33 Ry     beta= 0.70
     Davidson diagonalization with overlap
     ethr =  5.25E-07,  avg # of iterations =  1.0

     negative rho (up, down):  9.044E-02 0.000E+00

     total cpu time spent up to now is     2936.7 secs

     total energy              =   -3884.75179942 Ry
     estimated scf accuracy    <       0.00107864 Ry

     iteration # 27     ecut=    45.33 Ry     beta= 0.70
     Davidson diagonalization with overlap
     ethr =  1.35E-07,  avg # of iterations =  1.0

     negative rho (up, down):  6.887E-02 0.000E+00

     total cpu time spent up to now is     3042.4 secs

     total energy              =   -3884.75184040 Ry
     estimated scf accuracy    <       0.00058812 Ry

     iteration # 28     ecut=    45.33 Ry     beta= 0.70
     Davidson diagonalization with overlap
     ethr =  7.36E-08,  avg # of iterations =  2.0

     negative rho (up, down):  6.267E-02 0.000E+00

     total cpu time spent up to now is     3153.9 secs

     total energy              =   -3884.75186515 Ry
     estimated scf accuracy    <       0.00029234 Ry

     iteration # 29     ecut=    45.33 Ry     beta= 0.70
     Davidson diagonalization with overlap
     ethr =  3.66E-08,  avg # of iterations =  1.0

     negative rho (up, down):  5.493E-02 0.000E+00

     total cpu time spent up to now is     3259.5 secs

     total energy              =   -3884.75186334 Ry
     estimated scf accuracy    <       0.00024824 Ry

     iteration # 30     ecut=    45.33 Ry     beta= 0.70
     Davidson diagonalization with overlap
     ethr =  3.11E-08,  avg # of iterations =  1.0

     negative rho (up, down):  5.414E-02 0.000E+00

     total cpu time spent up to now is     3364.7 secs

     total energy              =   -3884.75184417 Ry
     estimated scf accuracy    <       0.00029859 Ry

     iteration # 31     ecut=    45.33 Ry     beta= 0.70
     Davidson diagonalization with overlap
     ethr =  3.11E-08,  avg # of iterations =  1.0

     negative rho (up, down):  5.101E-02 0.000E+00

     total cpu time spent up to now is     3470.1 secs

     total energy              =   -3884.75184545 Ry
     estimated scf accuracy    <       0.00005310 Ry

     iteration # 32     ecut=    45.33 Ry     beta= 0.70
     Davidson diagonalization with overlap
     ethr =  6.65E-09,  avg # of iterations =  2.0

     negative rho (up, down):  5.203E-02 0.000E+00

     total cpu time spent up to now is     3582.8 secs

     total energy              =   -3884.75184040 Ry
     estimated scf accuracy    <       0.00002334 Ry

     iteration # 33     ecut=    45.33 Ry     beta= 0.70
     Davidson diagonalization with overlap
     ethr =  2.92E-09,  avg # of iterations =  1.0

     negative rho (up, down):  5.237E-02 0.000E+00

     total cpu time spent up to now is     3688.2 secs

     total energy              =   -3884.75183509 Ry
     estimated scf accuracy    <       0.00001072 Ry

     iteration # 34     ecut=    45.33 Ry     beta= 0.70
     Davidson diagonalization with overlap
     ethr =  1.34E-09,  avg # of iterations =  3.0

     negative rho (up, down):  5.228E-02 0.000E+00

     total cpu time spent up to now is     3802.9 secs

     total energy              =   -3884.75183479 Ry
     estimated scf accuracy    <       0.00000304 Ry

     iteration # 35     ecut=    45.33 Ry     beta= 0.70
     Davidson diagonalization with overlap
     ethr =  3.81E-10,  avg # of iterations =  2.0

     negative rho (up, down):  5.256E-02 0.000E+00

     total cpu time spent up to now is     3915.1 secs

     total energy              =   -3884.75183408 Ry
     estimated scf accuracy    <       0.00000342 Ry

     iteration # 36     ecut=    45.33 Ry     beta= 0.70
     Davidson diagonalization with overlap
     ethr =  3.81E-10,  avg # of iterations =  1.0

     negative rho (up, down):  5.254E-02 0.000E+00

     total cpu time spent up to now is     4013.7 secs

     End of self-consistent calculation

          k = 0.0000 0.0000 0.0000 (****** PWs)   bands (ev):

   -24.1508 -23.9240 -23.9039 -23.8325 -23.7771 -23.7366 -23.6800 -23.5971
   -23.5244 -23.4267 -23.3039 -23.1957 -23.0632 -22.9074 -22.7582 -22.5901
   -22.5629 -22.5428 -22.4733 -22.4150 -22.4053 -22.3396 -22.2836 -22.2243
   -22.1927 -22.1081 -22.0741 -21.9862 -21.9326 -21.8620 -21.7881 -21.7213
   -21.6517 -21.5410 -21.5008 -21.3602 -21.3124 -21.1739 -21.0898 -20.9748
   -20.8655 -20.7654 -20.6337 -20.5410 -20.4858 -20.4658 -20.4116 -20.3989
   -20.3457 -20.3115 -20.2827 -20.2312 -20.1733 -20.1396 -20.0640 -20.0490
   -19.9659 -19.9184 -19.8782 -19.8015 -19.7557 -19.7028 -19.6242 -19.5973
   -19.4846 -19.4361 -19.4084 -19.2850 -19.2248 -19.1825 -19.0895 -19.0210
   -18.9423 -18.9227 -18.8809 -18.8310 -18.7143 -18.6814 -18.6306 -18.5339
   -18.4855 -18.4583 -18.4023 -18.3887 -18.3563 -18.2837 -18.2648 -18.1794
   -18.1401 -18.0915 -18.0828 -18.0640 -18.0492 -18.0253 -18.0068 -17.9655
   -17.8027 -17.6908 -17.5704 -17.5465 -17.4911 -17.2636 -17.1144 -16.9805
   -16.8728 -16.7048 -16.6758 -16.6715 -16.6487 -16.5948 -16.5891 -16.5105
   -16.4713 -16.4673 -16.3632 -16.3591 -16.3212 -16.2768 -16.1910 -16.1740
   -16.0746 -16.0333 -15.9952 -15.9527 -15.8974 -15.8470 -15.8183 -15.7391
   -15.6994 -15.6810 -15.6240 -15.5923 -15.5623 -15.5085 -15.4494 -15.4344
   -15.3774 -15.3137 -15.2110 -14.9397 -14.7471 -14.5875 -14.4743 -14.3205
   -14.2347 -14.2137 -14.1877 -14.1182 -14.0772 -14.0761 -13.9809 -13.9711
   -13.9524 -13.9390 -13.9267 -13.8982 -13.8410 -13.8140 -13.7892 -13.7427
   -13.6779 -13.6177 -13.5697 -13.5380 -13.4401 -13.4243 -13.3463 -13.2854
   -13.2563 -13.2333 -13.1741 -13.1397 -13.1191 -13.0912 -13.0382 -13.0080
   -12.9737 -12.9419 -12.8422 -12.8277 -12.7552 -12.7038 -12.6809 -12.6547
   -12.6073 -12.5696 -12.5404 -12.4837 -12.3716 -12.3512 -12.2409 -12.1806
   -12.1236 -12.0845 -12.0684 -11.9643 -11.9593 -11.9153 -11.9128 -11.8509
   -11.8408 -11.8154 -11.7752 -11.7606 -11.7521 -11.7157 -11.6997 -11.6403
   -11.6227 -11.6075 -11.6042 -11.5916 -11.5601 -11.5171 -11.5138 -11.4898
   -11.4791 -11.4561 -11.4313 -11.4199 -11.3866 -11.3375 -11.3306 -11.3192
   -11.3079 -11.2937 -11.2758 -11.2404 -11.2165 -11.1669 -11.1647 -11.1582
   -11.0902 -11.0463 -11.0235 -10.9632 -10.9117 -10.8840 -10.8535 -10.8284
   -10.7971 -10.7628 -10.7223 -10.6819 -10.6448 -10.5659 -10.5472 -10.5192
   -10.4687 -10.4375 -10.4289 -10.4044 -10.3745 -10.3640 -10.3148 -10.2917
   -10.2537 -10.2170 -10.2011 -10.1703 -10.1608 -10.1529 -10.1181 -10.0943
   -10.0393 -10.0305 -10.0238 -10.0082  -9.9883  -9.9842  -9.9674  -9.9308
    -9.9183  -9.8715  -9.8338  -9.8005  -9.7791  -9.7302  -9.6528  -9.6271
    -9.5714  -9.5474  -9.5130  -9.4398  -9.4095  -9.3746  -9.3122  -9.2845
    -9.2545  -9.2157  -9.1973  -9.0637  -9.0527  -9.0248  -9.0010  -8.8891
    -8.8187  -8.6915  -8.5729  -8.5091  -8.4092  -8.3845  -8.3336  -8.3246
    -8.2789  -8.2433  -8.1990  -8.1625  -8.1051  -8.0594  -8.0138  -7.9986
    -7.9540  -7.8988  -7.8113  -7.7779  -7.7161  -7.6937  -7.6547  -7.6401
    -7.6018  -7.5645  -7.4986  -7.4523  -7.4209  -7.3153  -7.2923  -7.2014
    -7.1446  -7.1009  -7.0501  -7.0388  -7.0258  -6.9980  -6.9884  -6.9753
    -6.9550  -6.9221  -6.9136  -6.9120  -6.8850  -6.8590  -6.8529  -6.8245
    -6.8016  -6.7943  -6.7538  -6.7479  -6.7297  -6.7090  -6.6927  -6.6874
    -6.6719  -6.6662  -6.6613  -6.6399  -6.6314  -6.6249  -6.6220  -6.6104
    -6.5919  -6.5837  -6.5741  -6.5607  -6.5491  -6.5321  -6.5098  -6.5048
    -6.4993  -6.4781  -6.4650  -6.4469  -6.4436  -6.4343  -6.3943  -6.3842
    -6.3709  -6.3425  -6.3165  -6.2495  -6.2213  -6.1513  -6.1335  -6.1252
    -6.0924  -6.0654  -6.0326  -5.9545  -5.9189  -5.8761  -5.8257  -5.8216
    -5.8146  -5.7764  -5.7222  -5.7195  -5.6834  -5.6050  -5.5841  -5.5617
    -5.5590  -5.5056  -5.4816  -5.4574  -5.4147  -5.3945  -5.3478  -5.3193
    -5.2867  -5.2468  -5.1871  -5.1706  -5.1133  -5.0643  -4.9877  -4.9714
    -4.8453  -4.8310  -4.7555  -4.7106  -4.6975  -4.6453  -4.6026  -4.5273
    -4.5137  -4.4824  -4.4452  -4.4260  -4.3844  -4.3592  -4.2639  -4.1707
    -4.1233  -4.0851  -4.0806  -3.9103  -3.6842  -3.4301  -3.2152  -3.1580
    -3.0497  -2.9774  -2.9022  -2.8878  -2.8705  -2.8687  -2.8539  -2.8294
    -2.8249  -2.8018  -2.7844  -2.7549  -2.7230  -2.6695  -2.6333  -2.5718
    -2.5488  -2.4920  -2.4133  -2.3118  -2.2795  -2.2618  -2.1582  -2.0664
    -2.0200  -1.9195  -1.8788  -1.8442  -1.7982  -1.6789  -1.6305  -1.5834
    -1.5635  -1.3818  -1.2442  -1.1947  -1.1125  -1.0484  -0.9300  -0.8948

     the Fermi energy is    -5.5732 ev

!    total energy              =   -3884.75183317 Ry
     total all-electron energy =    -18796.275622 Ry
     estimated scf accuracy    <       0.00000094 Ry
     smearing contrib. (-TS)   =      -0.00841539 Ry
     internal energy E=F+TS    =   -3884.74341778 Ry

     The total energy is F=E-TS. E is the sum of the following terms:
     one-electron contribution =  -46845.83434689 Ry
     hartree contribution      =   23508.59110406 Ry
     xc contribution           =    -918.30112630 Ry
     ewald contribution        =   21771.84721368 Ry
     DFT-D3 Dispersion         =      -0.43394726 Ry
     one-center paw contrib.   =   -1400.61231507 Ry

     convergence has been achieved in  36 iterations

     negative rho (up, down):  5.254E-02 0.000E+00

     Forces acting on atoms (cartesian axes, Ry/au):

     atom    1 type  1   force =     0.03131541    0.13034641   -0.03834274
     atom    2 type  1   force =    -0.15628177    0.22723176   -0.07520854
     atom    3 type  1   force =    -0.29585228    0.15709996    0.03772116
     atom    4 type  1   force =    -0.29797220   -0.03027057    0.04595153
     atom    5 type  1   force =    -0.20949697   -0.20051569    0.04355446
     atom    6 type  1   force =    -0.02188125   -0.28581262    0.04237341
     atom    7 type  1   force =     0.15473340   -0.24156210    0.04261096
     atom    8 type  1   force =     0.25068249   -0.14220773    0.04304575
     atom    9 type  1   force =     0.28783294   -0.02631972    0.04312900
     atom   10 type  1   force =     0.27138018    0.09792050    0.04285439
     atom   11 type  1   force =     0.18292539    0.21848883    0.04155039
     atom   12 type  1   force =     0.02648022    0.28163199    0.04462602
     atom   13 type  1   force =    -0.08636212    0.27649819    0.04520206
     atom   14 type  1   force =    -0.11068258    0.27401767    0.04525908
     atom   15 type  1   force =    -0.12325403    0.27162631    0.04770648
     atom   16 type  1   force =    -0.15141201    0.25674194   -0.05479365
     atom   17 type  1   force =    -0.00949099   -0.17292827    0.12740361
     atom   18 type  1   force =     0.17722057   -0.28894266   -0.02467604
     atom   19 type  1   force =     0.27503726   -0.13671630    0.04488280
     atom   20 type  1   force =     0.29525700    0.02771843    0.04309795
     atom   21 type  1   force =     0.21088424    0.19809384    0.04250441
     atom   22 type  1   force =     0.02497210    0.28581939    0.04284171
     atom   23 type  1   force =    -0.15293492    0.24336005    0.04288342
     atom   24 type  1   force =    -0.25013743    0.14395921    0.04294508
     atom   25 type  1   force =    -0.28807357    0.02773686    0.04316121
     atom   26 type  1   force =    -0.27190735   -0.09614047    0.04283487
     atom   27 type  1   force =    -0.18452108   -0.21517878    0.04387304
     atom   28 type  1   force =    -0.02874720   -0.28264073    0.04378560
     atom   29 type  1   force =     0.08613791   -0.27885311    0.04469936
     atom   30 type  1   force =     0.11219963   -0.27823865    0.04602218
     atom   31 type  1   force =     0.13676839   -0.29547632    0.04618429
     atom   32 type  1   force =     0.13909162   -0.23189388   -0.04502261
     atom   33 type  1   force =    -0.05514849    0.09134670   -0.10351771
     atom   34 type  1   force =    -0.00733786    0.00418225    0.07556905
     atom   35 type  1   force =    -0.03061969    0.01260352   -0.04988188
     atom   36 type  1   force =    -0.02773424   -0.00275551   -0.04355711
     atom   37 type  1   force =    -0.01978429   -0.01827789   -0.04222881
     atom   38 type  1   force =    -0.00240698   -0.02695663   -0.04196691
     atom   39 type  1   force =     0.01323872   -0.02219287   -0.04191428
     atom   40 type  1   force =     0.02184078   -0.01342661   -0.04158361
     atom   41 type  1   force =     0.02597248   -0.00306880   -0.04165323
     atom   42 type  1   force =     0.02471142    0.00808313   -0.04147581
     atom   43 type  1   force =     0.01834452    0.01892964   -0.04232081
     atom   44 type  1   force =     0.00412524    0.02405166   -0.04288179
     atom   45 type  1   force =    -0.00714515    0.02320938   -0.04244951
     atom   46 type  1   force =    -0.00945572    0.02473277   -0.03976270
     atom   47 type  1   force =    -0.05113545    0.09902225   -0.09507320
     atom   48 type  1   force =    -0.04126936    0.06524951    0.08168867
     atom   49 type  1   force =     0.02427517    0.00087807    0.06457434
     atom   50 type  1   force =     0.08935915   -0.07339089   -0.09292954
     atom   51 type  1   force =     0.02885979    0.00364509   -0.03961728
     atom   52 type  1   force =     0.01945144    0.01959113   -0.04267500
     atom   53 type  1   force =     0.00127656    0.02663799   -0.04227786
     atom   54 type  1   force =    -0.01472119    0.02213659   -0.04185037
     atom   55 type  1   force =    -0.02326334    0.01168400   -0.04164489
     atom   56 type  1   force =    -0.02552980    0.00201675   -0.04181765
     atom   57 type  1   force =    -0.02473351   -0.00904633   -0.04172545
     atom   58 type  1   force =    -0.01751350   -0.02050271   -0.04087439
     atom   59 type  1   force =    -0.00259312   -0.02676284   -0.04327219
     atom   60 type  1   force =     0.00875541   -0.02301932   -0.04300629
     atom   61 type  1   force =     0.00975276   -0.02348573   -0.04463359
     atom   62 type  1   force =     0.01262685   -0.02718199   -0.05866912
     atom   63 type  1   force =     0.01059394   -0.01696154    0.08318602
     atom   64 type  1   force =     0.04754964   -0.07451520   -0.03503667
     atom   65 type  1   force =    -0.02417043   -0.03839422    0.01844162
     atom   66 type  1   force =    -0.00829948   -0.01002216   -0.03055175
     atom   67 type  1   force =    -0.02809814    0.01955285    0.02151661
     atom   68 type  1   force =    -0.03853042    0.00256794   -0.00288786
     atom   69 type  1   force =    -0.03078962   -0.02027423   -0.00160408
     atom   70 type  1   force =    -0.00926486   -0.03553822   -0.00179901
     atom   71 type  1   force =     0.01507199   -0.03353626   -0.00242079
     atom   72 type  1   force =     0.02984996   -0.02184420   -0.00316772
     atom   73 type  1   force =     0.03626809   -0.00738042   -0.00297442
     atom   74 type  1   force =     0.03576316    0.00796102   -0.00266831
     atom   75 type  1   force =     0.02696904    0.02321980   -0.00221750
     atom   76 type  1   force =     0.00734544    0.03253139   -0.00117694
     atom   77 type  1   force =    -0.00895509    0.03521409   -0.00349615
     atom   78 type  1   force =    -0.01475839    0.03580342   -0.00200595
     atom   79 type  1   force =    -0.01613364    0.03474094    0.00591094
     atom   80 type  1   force =     0.00126245   -0.00315299   -0.02835799
     atom   81 type  1   force =    -0.00307705    0.03240011    0.04835799
     atom   82 type  1   force =    -0.00279602    0.01339456   -0.02117340
     atom   83 type  1   force =     0.03683360   -0.01189075    0.00109301
     atom   84 type  1   force =     0.03749283    0.00831786   -0.00135241
     atom   85 type  1   force =     0.02171208    0.03016784   -0.00210250
     atom   86 type  1   force =    -0.00323917    0.03634690   -0.00200456
     atom   87 type  1   force =    -0.02391786    0.02822919   -0.00255957
     atom   88 type  1   force =    -0.03388424    0.01487426   -0.00318059
     atom   89 type  1   force =    -0.03708483   -0.00061520   -0.00306087
     atom   90 type  1   force =    -0.03317443   -0.01673729   -0.00244457
     atom   91 type  1   force =    -0.01848305   -0.02986766   -0.00226573
     atom   92 type  1   force =     0.00136712   -0.03347714   -0.00187092
     atom   93 type  1   force =     0.01255453   -0.03332876   -0.00380548
     atom   94 type  1   force =     0.01402987   -0.03514483   -0.00560065
     atom   95 type  1   force =     0.01573773   -0.03002344    0.01646533
     atom   96 type  1   force =    -0.00541113    0.00807894   -0.08008675
     atom   97 type  1   force =     0.02498375   -0.00738958   -0.03839638
     atom   98 type  1   force =    -0.01293184    0.01489193    0.00376588
     atom   99 type  1   force =    -0.03745816    0.01034702   -0.00106272
     atom  100 type  1   force =    -0.03824251   -0.00902258    0.00083566
     atom  101 type  1   force =    -0.02160440   -0.03000875    0.00181712
     atom  102 type  1   force =     0.00394795   -0.03664075    0.00245067
     atom  103 type  1   force =     0.02382407   -0.02761117    0.00276257
     atom  104 type  1   force =     0.03400791   -0.01505716    0.00317148
     atom  105 type  1   force =     0.03717682    0.00038860    0.00285683
     atom  106 type  1   force =     0.03259255    0.01593959    0.00228033
     atom  107 type  1   force =     0.02056511    0.02997238    0.00242786
     atom  108 type  1   force =    -0.00096204    0.03491811    0.00252207
     atom  109 type  1   force =    -0.01262396    0.03479373    0.00256092
     atom  110 type  1   force =    -0.01192645    0.03091133    0.00369852
     atom  111 type  1   force =    -0.00679882    0.01649689   -0.00892619
     atom  112 type  1   force =    -0.00172575    0.00314573    0.01784320
     atom  113 type  1   force =    -0.00205251   -0.01711312    0.01798460
     atom  114 type  1   force =     0.02041699   -0.01088656   -0.01286879
     atom  115 type  1   force =     0.03587192   -0.00390320    0.00201351
     atom  116 type  1   force =     0.03199225    0.02135538    0.00137962
     atom  117 type  1   force =     0.00934602    0.03565536    0.00172824
     atom  118 type  1   force =    -0.01493204    0.03331837    0.00234596
     atom  119 type  1   force =    -0.03021666    0.02120594    0.00304625
     atom  120 type  1   force =    -0.03592330    0.00728745    0.00304985
     atom  121 type  1   force =    -0.03633635   -0.00819156    0.00289447
     atom  122 type  1   force =    -0.02814977   -0.02391125    0.00240177
     atom  123 type  1   force =    -0.00778448   -0.03607119    0.00231481
     atom  124 type  1   force =     0.00897321   -0.03419987    0.00216003
     atom  125 type  1   force =     0.01392823   -0.03470590    0.00129051
     atom  126 type  1   force =     0.01390976   -0.03580399   -0.01025893
     atom  127 type  1   force =     0.01280049   -0.02398513    0.00921539
     atom  128 type  1   force =     0.00447909   -0.00767544    0.01200786
     atom  129 type  1   force =     0.02457708    0.01209249   -0.00911481
     atom  130 type  1   force =    -0.01520269    0.04591134   -0.00762253
     atom  131 type  1   force =     0.00156079   -0.00374785    0.03480664
     atom  132 type  1   force =    -0.02382589    0.00772481    0.03591676
     atom  133 type  1   force =    -0.02468112   -0.01062071    0.04412844
     atom  134 type  1   force =    -0.01211596   -0.02509266    0.04206543
     atom  135 type  1   force =     0.00649748   -0.02558389    0.04162091
     atom  136 type  1   force =     0.01848638   -0.01809209    0.04155180
     atom  137 type  1   force =     0.02464041   -0.00807966    0.04145487
     atom  138 type  1   force =     0.02592234    0.00259409    0.04156326
     atom  139 type  1   force =     0.02210919    0.01407200    0.04203409
     atom  140 type  1   force =     0.01093987    0.02195594    0.04308169
     atom  141 type  1   force =    -0.00242015    0.02396864    0.04173701
     atom  142 type  1   force =    -0.01110420    0.02952375    0.04033356
     atom  143 type  1   force =    -0.01808612    0.03865904    0.04381692
     atom  144 type  1   force =    -0.01962366    0.03469194   -0.01339431
     atom  145 type  1   force =    -0.01773618    0.00075830    0.07683608
     atom  146 type  1   force =     0.02563590   -0.02593484   -0.01494762
     atom  147 type  1   force =     0.03288122   -0.00738343    0.04022827
     atom  148 type  1   force =     0.02882447    0.01202372    0.04176135
     atom  149 type  1   force =     0.01133963    0.02564918    0.04238513
     atom  150 type  1   force =    -0.00781932    0.02548938    0.04178595
     atom  151 type  1   force =    -0.01993953    0.01744832    0.04124890
     atom  152 type  1   force =    -0.02483138    0.00719637    0.04147602
     atom  153 type  1   force =    -0.02548819   -0.00390920    0.04139087
     atom  154 type  1   force =    -0.02168527   -0.01529411    0.04129705
     atom  155 type  1   force =    -0.00844302   -0.02419116    0.04131583
     atom  156 type  1   force =     0.00547088   -0.02486279    0.04224374
     atom  157 type  1   force =     0.00856651   -0.02223186    0.04266636
     atom  158 type  1   force =     0.00926858   -0.02092713    0.03155461
     atom  159 type  1   force =     0.00163777   -0.00488517    0.01601755
     atom  160 type  1   force =     0.01941437   -0.02665986   -0.02907276
     atom  161 type  1   force =    -0.01308598    0.03187805   -0.17555917
     atom  162 type  1   force =    -0.06436431    0.08085082    0.08568978
     atom  163 type  1   force =    -0.26674501    0.05026162   -0.04373635
     atom  164 type  1   force =    -0.27015722   -0.11875205   -0.04568189
     atom  165 type  1   force =    -0.12398891   -0.26175924   -0.04293239
     atom  166 type  1   force =     0.07459494   -0.27646548   -0.04198248
     atom  167 type  1   force =     0.21228487   -0.19423950   -0.04254367
     atom  168 type  1   force =     0.27575940   -0.08635130   -0.04293041
     atom  169 type  1   force =     0.28727121    0.03469056   -0.04279900
     atom  170 type  1   force =     0.23829731    0.16083729   -0.04205735
     atom  171 type  1   force =     0.10895807    0.26207997   -0.04206729
     atom  172 type  1   force =    -0.04420534    0.28094925   -0.04394416
     atom  173 type  1   force =    -0.10586097    0.27434531   -0.04140791
     atom  174 type  1   force =    -0.10796979    0.26086759   -0.02678865
     atom  175 type  1   force =    -0.00142059    0.00935402   -0.04734865
     atom  176 type  1   force =    -0.03544174    0.05615759    0.07592788
     atom  177 type  1   force =     0.02722274   -0.06900990    0.09659995
     atom  178 type  1   force =     0.00566703   -0.00770132   -0.06406816
     atom  179 type  1   force =     0.27305510   -0.05955155   -0.03228003
     atom  180 type  1   force =     0.26972581    0.11558900   -0.04210928
     atom  181 type  1   force =     0.12618423    0.25936780   -0.04262392
     atom  182 type  1   force =    -0.07157421    0.27730418   -0.04246901
     atom  183 type  1   force =    -0.21134498    0.19562824   -0.04279190
     atom  184 type  1   force =    -0.27491937    0.08763158   -0.04297297
     atom  185 type  1   force =    -0.28669247   -0.03328634   -0.04289931
     atom  186 type  1   force =    -0.23857539   -0.15831030   -0.04270787
     atom  187 type  1   force =    -0.11182481   -0.26015422   -0.04293057
     atom  188 type  1   force =     0.04104309   -0.28330745   -0.04280891
     atom  189 type  1   force =     0.10450323   -0.27448245   -0.04414584
     atom  190 type  1   force =     0.10438004   -0.25230633   -0.04259150
     atom  191 type  1   force =     0.05685436   -0.10986856    0.09593871
     atom  192 type  1   force =    -0.00697833    0.01193244   -0.01266833
     atom  193 type  2   force =    -0.00311025   -0.00733654    0.00074559
     atom  194 type  3   force =    -0.00016050    0.00004478    0.00157917
     atom  195 type  3   force =     0.00077717    0.00230346    0.00066953
     atom  196 type  3   force =    -0.00198892    0.00396309   -0.00259857
     atom  197 type  3   force =     0.00347000    0.00290964   -0.00051517

     Total force =     1.683736     Total SCF correction =     0.001246

     BFGS Geometry Optimization
     Energy error            =      0.0E+00 Ry
     Gradient error          =      2.9E-01 Ry/Bohr

     number of scf cycles    =   1
     number of bfgs steps    =   0

     energy             new  =   -3884.7518331719 Ry

     new trust radius        =       0.3398586439 bohr
     new conv_thr            =       0.0000010000 Ry


ATOMIC_POSITIONS (angstrom)
C               30.4537650578       21.9107928461        1.0805323806
C               29.9994340893       25.8658464329        7.3564541598
C               27.2324084417       28.8769231601        0.0179695737    0   0   0
C               23.1842920721       30.0662509373        0.0171169542    0   0   0
C               19.1661798195       28.8015785909        0.0139660156    0   0   0
C               16.9078558270       25.2726117551        0.0131251452    0   0   0
C               17.5109722178       21.1124548595        0.0121721040    0   0   0
C               20.3619411575       17.9823600709        0.0118061334    0   0   0
C               24.3091265243       16.4190661989        0.0108451698    0   0   0
C               28.5500075909       16.6238126688        0.0093827525    0   0   0
C               32.2478668190       18.6804381467        0.0086398353    0   0   0
C               34.2723701106       22.3703930714        0.0069866670    0   0   0
C               33.9954114585       26.5929906427        0.0065072083    0   0   0
C               32.5577418032       30.6105005714        0.0053494007    0   0   0
C               30.9410803883       34.5580950653        0.0088053561    0   0   0
C               28.9151603103       38.5203358726        7.3705077968
C               30.7311720896       22.9453981510        0.1998662222    0   0   0
C               29.4223285134       26.8063546198        7.3919236626
C               25.9628771329       29.5200672808        0.0179423026    0   0   0
C               21.7646280812       29.9321529434        0.0156112086    0   0   0
C               18.1315169709       27.8219232482        0.0137042636    0   0   0
C               16.7912570834       23.8528728864        0.0124334577    0   0   0
C               18.2747815938       19.9096888172        0.0121896666    0   0   0
C               21.5985924225       17.2753149142        0.0114852923    0   0   0
C               25.7275810495       16.2853839619        0.0102933055    0   0   0
C               29.8912357576       17.1031404051        0.0089989290    0   0   0
C               33.1709849467       19.7642198148        0.0083183218    0   0   0
C               34.4102476460       23.7862434732        0.0065638659    0   0   0
C               33.5721785028       27.9511568862        0.0060836325    0   0   0
C               32.0253120384       31.9302958858        0.0051827615    0   0   0
C               30.3486144465       35.8529941478        0.0114293296    0   0   0
C               28.3218044839       39.5025312495        7.3427578900
C               30.9695709324       23.9917274702        1.1850880667
C               28.9074272375       27.5457679076        1.2799044942
C               25.2765065140       29.7523501702        1.2263534764
C               21.0570359760       29.7567690812        1.2256391755
C               17.6994924600       27.2365150852        1.2255053199
C               16.8556570325       23.1279360066        1.2244322031
C               18.7431293713       19.3537978762        1.2242512425
C               22.2636068323       16.9828532506        1.2236028369
C               26.4546215413       16.2906711428        1.2222833500
C               30.5440879982       17.4227151716        1.2211064327
C               33.5678858228       20.3733083737        1.2198492367
C               34.3969066485       24.5097802631        1.2181711439
C               33.3285483691       28.6330227870        1.2175099905
C               31.7563203662       32.6010678178        1.2186526819
C               29.9978504504       36.5579626429        1.1884504552
C               27.8317419519       40.2858377853        1.2821393336
C               30.5442357205       25.2611951334        1.2695618445
C               27.8846036556       28.4441401836        1.1970421604
C               23.9097736544       30.0207358166        1.2308144575
C               19.7745033331       29.2018190442        1.2256373525
C               17.0952769148       25.9756193975        1.2250918106
C               17.2147934383       21.7768658758        1.2244070533
C               19.7726945192       18.4079185389        1.2240744140
C               23.5968837936       16.5618827617        1.2231006257
C               27.8425141173       16.4562957330        1.2215570399
C               31.7087429112       18.1946762266        1.2217851061
C               34.1112130183       21.6617856782        1.2182766284
C               34.1793639160       25.8914314083        1.2175872747
C               32.8272435659       29.9380620801        1.2160524784
C               31.2281566834       33.8897745170        1.2085683219
C               29.3520893149       37.7593529714        1.2824441838
C               27.1639881459       41.3410859815        1.2200842939
C               30.8055384070       21.9058853648        2.4919849804
C               30.2461974363       25.9069097062        2.4673244049
C               27.2315681207       28.8874025663        2.4960242260
C               23.1610602819       30.0467109013        2.4826845570
C               19.1499424458       28.7904459697        2.4812896116
C               16.9032835430       25.2538404265        2.4802368680
C               17.5201448499       21.0953005952        2.4791830930
C               20.3775353332       17.9708063689        2.4783264072
C               24.3285691291       16.4156027139        2.4774372471
C               28.5689586681       16.6277466319        2.4759919735
C               32.2728545362       18.6845282542        2.4753322538
C               34.2960377161       22.3843606166        2.4736513965
C               33.9987838919       26.6132023764        2.4720153772
C               32.5528160860       30.6309059657        2.4725055846
C               30.9413911189       34.5806507498        2.4731704314
C               29.0095136789       38.3903662105        2.4665960189
C               31.2414707383       23.3456728737        2.5084130163
C               29.4051224763       27.0498894959        2.4722943542
C               25.9864412031       29.4955022505        2.4858132997
C               21.7842430302       29.9298883423        2.4825586091
C               18.1426850833       27.8383366585        2.4807704578
C               16.7888585708       23.8720961880        2.4795854273
C               18.2620633807       19.9243423991        2.4790851592
C               21.5806301073       17.2832441564        2.4779705232
C               25.7080914632       16.2843953983        2.4769150178
C               29.8742049801       17.0932284224        2.4754730358
C               33.1772137445       19.7375689422        2.4746176281
C               34.4334661724       23.7671490092        2.4730717160
C               33.5815004163       27.9338090811        2.4716174734
C               32.0377300947       31.9137206486        2.4708977151
C               30.3703433840       35.8436822015        2.4748802421
C               28.2526164640       39.6328405596        2.4725463708
C               31.0116470549       23.9395012003        3.7058922220
C               28.9014602315       27.5478956701        3.7298215067
C               25.2664940918       29.7279924091        3.7169657354
C               21.0511769494       29.7510636000        3.7179911645
C               17.6980320924       27.2305329743        3.7168954598
C               16.8591003347       23.1228958405        3.7158639062
C               18.7483573753       19.3504320712        3.7160152581
C               22.2698161938       16.9820482990        3.7153034221
C               26.4603883691       16.2928324188        3.7140220070
C               30.5480004168       17.4269297625        3.7117448601
C               33.5692384115       20.3791028991        3.7103827983
C               34.3947513362       24.5157951786        3.7090659677
C               33.3259817083       28.6401440319        3.7093518874
C               31.7600581788       32.6107645934        3.7092734929
C               30.0654724345       36.5022283767        3.6914179019
C               27.9290999704       40.1754221766        3.7625433016
C               30.5296473421       25.2513606943        3.7410374395
C               27.8424074525       28.4675808479        3.7157209594
C               23.9101390612       29.9964435260        3.7187838149
C               19.7808714777       29.2022257663        3.7175419233
C               17.0993465598       25.9805048746        3.7164537784
C               17.2145669960       21.7828907843        3.7158128046
C               19.7684762726       18.4121616811        3.7157986663
C               23.5912808765       16.5649479053        3.7148617667
C               27.8362818804       16.4568838411        3.7131525663
C               31.7028519532       18.1930239558        3.7112871732
C               34.1079644875       21.6567054431        3.7094159445
C               34.1802396841       25.8852206628        3.7092609138
C               32.8306686257       29.9319947943        3.7088157121
C               31.2368907296       33.8928121608        3.7005458587
C               29.4121742593       37.7345695983        3.6938710026
C               27.2105048837       41.3080251383        4.3177040083
C               30.4493228333       21.8494766065        3.8594880146
C               30.0733892895       25.7693513286        4.9717496789
C               27.2271780214       28.8624576219        4.9684483548
C               23.1700853810       30.0562605200        4.9697477510
C               19.1527865462       28.7958770509        4.9741281290
C               16.9020393143       25.2593114751        4.9717316766
C               17.5149147124       21.0991710793        4.9707104588
C               20.3713559383       17.9724439531        4.9701408346
C               24.3221701408       16.4151807662        4.9691644754
C               28.5637078107       16.6248253646        4.9673778679
C               32.2598506600       18.6878395790        4.9665634590
C               34.2779013901       22.3816782722        4.9647706104
C               33.9948838481       26.6057786008        4.9637207558
C               32.5535448596       30.6276990747        4.9627921065
C               30.9428027779       34.5850038997        4.9643783472
C               29.0638991322       38.3387092768        4.9324670406
C               30.7215853019       22.9456248241        4.8065892894
C               29.3411805536       26.9441599100        4.9595296911
C               25.9736541167       29.4977801089        4.9716935719
C               21.7793695345       29.9339827667        4.9732067799
C               18.1375422034       27.8352388104        4.9726854293
C               16.7879289389       23.8664912366        4.9709857718
[...]

     number of scf cycles    =  30
     number of bfgs steps    =  29

     energy             old  =   -3886.2821272222 Ry
     energy             new  =   -3886.2835509571 Ry

     CASE: energy            _new < energy            _old

     new trust radius        =       0.0548617511 bohr
     new conv_thr            =       0.0000000770 Ry


ATOMIC_POSITIONS (angstrom)
C               30.7689946004       21.8808437593        0.8836390866
C               29.7699166623       25.5192938571        7.1489280810
C               27.2324084417       28.8769231601        0.0179695737    0   0   0
C               23.1842920721       30.0662509373        0.0171169542    0   0   0
C               19.1661798195       28.8015785909        0.0139660156    0   0   0
C               16.9078558270       25.2726117551        0.0131251452    0   0   0
C               17.5109722178       21.1124548595        0.0121721040    0   0   0
C               20.3619411575       17.9823600709        0.0118061334    0   0   0
C               24.3091265243       16.4190661989        0.0108451698    0   0   0
C               28.5500075909       16.6238126688        0.0093827525    0   0   0
C               32.2478668190       18.6804381467        0.0086398353    0   0   0
C               34.2723701106       22.3703930714        0.0069866670    0   0   0
C               33.9954114585       26.5929906427        0.0065072083    0   0   0
C               32.5577418032       30.6105005714        0.0053494007    0   0   0
C               30.9410803883       34.5580950653        0.0088053561    0   0   0
C               28.9306535876       38.5243623803        7.2871953391
C               30.7311720896       22.9453981510        0.1998662222    0   0   0
C               29.1964901777       26.6250968819        7.2198917835
C               25.9628771329       29.5200672808        0.0179423026    0   0   0
C               21.7646280812       29.9321529434        0.0156112086    0   0   0
C               18.1315169709       27.8219232482        0.0137042636    0   0   0
C               16.7912570834       23.8528728864        0.0124334577    0   0   0
C               18.2747815938       19.9096888172        0.0121896666    0   0   0
C               21.5985924225       17.2753149142        0.0114852923    0   0   0
C               25.7275810495       16.2853839619        0.0102933055    0   0   0
C               29.8912357576       17.1031404051        0.0089989290    0   0   0
C               33.1709849467       19.7642198148        0.0083183218    0   0   0
C               34.4102476460       23.7862434732        0.0065638659    0   0   0
C               33.5721785028       27.9511568862        0.0060836325    0   0   0
C               32.0253120384       31.9302958858        0.0051827615    0   0   0
C               30.3486144465       35.8529941478        0.0114293296    0   0   0
C               28.2594124814       39.5856106374        7.2941700745
C               30.6701756384       24.1712759710        0.9966524287
C               29.0356633645       27.5094608228        1.2603651609
C               25.3065619807       29.8131070523        1.1955636902
C               21.0337576100       29.8180378571        1.1841488638
C               17.6215015798       27.2856819661        1.1802438617
C               16.7688103571       23.1211322295        1.1825906241
C               18.6707256577       19.2994340373        1.1868848096
C               22.2265969289       16.9070958809        1.1890959739
C               26.4570784189       16.2050556690        1.1854148771
C               30.5906256242       17.3409172569        1.1792847267
C               33.6700086914       20.3147896790        1.1724717396
C               34.4877283646       24.5041833303        1.1822237039
C               33.3527433092       28.6336688389        1.1929185656
C               31.7497699953       32.6132644044        1.1864384023
C               29.9414321471       36.6335996907        1.1014449456
C               27.7772949768       40.3962161150        1.3292232381
C               30.3672414761       25.5170024433        1.1623380422
C               27.9278915306       28.3556106522        1.1047999578
C               23.9183705077       30.0892813257        1.1926984607
C               19.7313081315       29.2640006880        1.1854360322
C               17.0087820851       26.0071374142        1.1792217682
C               17.1299261611       21.7501344175        1.1805465608
C               19.7120514510       18.3382852334        1.1841597418
C               23.5775383510       16.4802592876        1.1869769107
C               27.8638017578       16.3722276033        1.1846984843
C               31.7707984298       18.1240834921        1.1790325181
C               34.2192479157       21.6223176937        1.1689724749
C               34.2640820598       25.9013306278        1.1807178196
C               32.8330843885       29.9455412455        1.1893998314
C               31.2225409422       33.9188221213        1.1897587517
C               29.2841388314       37.8323471838        1.3040914279
C               27.3498509223       41.1047805541        0.3759463671
C               30.9741431504       22.0885725415        2.3113650829
C               30.3923156951       26.1007688484        2.4525640994
C               27.3029018493       28.8762708921        2.4005018408
C               23.1663878082       30.1166359813        2.4230202253
C               19.0856469295       28.8722965834        2.4161767525
C               16.7931325446       25.2904346326        2.4119487742
C               17.4004788434       21.0595113396        2.4157756206
C               20.2858769264       17.8722471743        2.4213121436
C               24.2981576015       16.2928780628        2.4223291598
C               28.6034491217       16.5009803743        2.4169033134
C               32.3722029014       18.5821474239        2.4065625054
C               34.4436885404       22.3304052642        2.4041304637
C               34.1056872039       26.6124266100        2.4240461474
C               32.5523530948       30.6292297594        2.4291986196
C               30.9160514818       34.6376184145        2.3950800450
C               28.9306581819       38.4934971279        2.4583285142
C               31.0381051395       23.5497277920        2.2711987347
C               29.5696030157       27.2323173999        2.5048392901
C               26.0281315322       29.5237320210        2.4067599193
C               21.7533105630       30.0005477844        2.4205377588
C               18.0467600655       27.9027476555        2.4138316656
C               16.6746268310       23.8718019216        2.4122731564
C               18.1569022516       19.8544232660        2.4176273942
C               21.5227560400       17.1690282406        2.4224631925
C               25.7140739367       16.1570256397        2.4211799705
C               29.9440555974       16.9763400891        2.4144498690
C               33.3100590778       19.6531261915        2.4025315244
C               34.5721127998       23.7478574848        2.4095996738
C               33.6432508465       27.9509317437        2.4293455835
C               32.0139484773       31.9362362249        2.4244279300
C               30.3317344664       35.9422395566        2.3864845652
C               28.1748704322       39.7645011871        2.5028667335
C               31.0840876034       24.1028764851        3.5271591739
C               29.0502446845       27.7355931515        3.7270616906
C               25.3214383394       29.7714481742        3.6415011792
C               21.0196260091       29.8494102262        3.6468196268
C               17.5858128106       27.3184232777        3.6439452338
C               16.7113716685       23.1326388311        3.6432089671
C               18.6059715889       19.2722076066        3.6509296817
C               22.1890714638       16.8487045878        3.6548705722
C               26.4588124587       16.1366195680        3.6517306298
C               30.6282577491       17.2823514456        3.6420060509
C               33.7321607061       20.2655130807        3.6313006867
C               34.5633510313       24.4777125560        3.6452578044
C               33.3807256066       28.6358483564        3.6649089322
C               31.7246166006       32.6353590366        3.6423164131
C               30.0613999657       36.6045446138        3.6087925897
C               27.8936903850       40.2740828877        3.7793433155
C               30.6928562758       25.4271720547        3.6566746616
C               27.9215903558       28.5796242338        3.6556808372
C               23.9110266605       30.0632725257        3.6457213191
C               19.6928539399       29.2925931664        3.6484798054
C               16.9628975877       26.0176536521        3.6418816443
C               17.0720742912       21.7359985474        3.6442318394
C               19.6620425917       18.2903228685        3.6510928710
C               23.5635595893       16.4149654205        3.6540284053
C               27.8899890122       16.3061456053        3.6494670120
C               31.8323726731       18.0747420093        3.6383236323
C               34.2991628321       21.5908390327        3.6304988759
C               34.3172962176       25.8938559417        3.6525485378
C               32.8323052510       29.9584155344        3.6617238075
C               31.1891989930       33.9654297217        3.6247515872
C               29.3556813622       37.8255597027        3.6722457555
C               27.1879672220       41.3754428667        4.3722513334
C               30.8508968093       21.7651209114        3.6343961815
C               30.1786119452       25.8948867631        4.8891469744
C               27.3069837496       28.9653002048        4.9067277912
C               23.1606826768       30.1758733963        4.8807131305
C               19.0224945862       28.9366543597        4.8850221131
C               16.7117261172       25.3017781554        4.8764349698
C               17.3247922164       21.0295412254        4.8823588843
C               20.2453681672       17.8179959442        4.8885680596
C               24.2952680597       16.2312897445        4.8899286059
C               28.6359945758       16.4423396389        4.8831625942
C               32.4333193672       18.5357119517        4.8708798767
C               34.5162294968       22.3055215123        4.8678913654
C               34.1257843772       26.6115733868        4.8942139773
C               32.5317460823       30.6563949946        4.8945896914
C               30.9282585490       34.6724195170        4.8551653051
C               29.0096318038       38.3731416872        4.9427405601
C               30.9060663041       22.9521087099        4.4797382675
C               29.4320547679       27.1007539932        4.9551883208
C               26.0359204734       29.5975060356        4.8765167563
C               21.7445563785       30.0756965503        4.8810941912
C               17.9864156334       27.9629491429        4.8809848280
C               16.5903910874       23.8853977713        4.8768581083
C               18.0826062425       19.8279835979        4.8845902219
C               21.4800446785       17.1179654488        4.8898783539
C               25.7073747290       16.0952036637        4.8887787353
C               29.9736500807       16.9157275111        4.8799334572
C               33.3629316558       19.6068711347        4.8675046729
C               34.6322405449       23.7169651377        4.8740458863
C               33.6538159858       27.9418660373        4.9025420363
C               31.9948696106       31.9603223356        4.8863159365
C               30.4066665341       35.9738011025        4.8614787143
C               28.3267383065       39.5724098723        4.9677044913
C               30.5808904919       23.6069552365        5.5953810146
C               28.7892920521       27.5220828008        6.2115777790
C               25.2331011455       29.9085166913        5.9751694776
C               20.8829440066       29.9037939735        5.9715491364
C               17.4531571144       27.2665994615        5.9722403975
C               16.6444030764       23.0232959400        5.9787614005
C               18.6248922116       19.1589355927        5.9888631781
C               22.2659884973       16.7660557928        5.9943112530
C               26.5692143581       16.0941532462        5.9917127224
C               30.7529650148       17.2886644089        5.9811648902
C               33.8238988190       20.3324863040        5.9707122420
C               34.5713105452       24.5582201691        5.9894653083
C               33.3283543907       28.7271415105        6.0169702753
C               31.6788486477       32.7467419607        6.0060561656
C               30.1512203423       36.6001190037        6.0852013388
C               27.8525642635       40.2976652781        6.1759764906
C               30.2588627337       24.9106394883        5.9787558290
C               27.8541957577       28.5261614630        6.1045089702
C               24.0163465015       30.1634587159        5.9892958315
C               19.7335939213       29.4297808329        5.9889825491
C               16.9191761213       26.1436346408        5.9770558344
C               16.9582416680       21.8196918467        5.9784739907
C               19.5363823905       18.3177835201        5.9880044334
C               23.4479949993       16.3951093155        5.9930377848
C               27.8017094861       16.2393818521        5.9880226335
C               31.7903739664       17.9694123456        5.9773535929
C               34.3094504619       21.4744245004        5.9747782170
C               34.3447900569       25.7780068953        5.9953514066
C               32.8488894127       29.8696063722        6.0072059664
C               31.2408678625       33.9067906044        5.9824482018
C               29.3964764168       37.7262342379        6.2265818242
C               27.1456489997       41.4108573728        5.6359078152
Al              26.9154639690       33.6159124005        3.2094963093
Cl              27.7119904112       33.7149139617        1.2099736928
Cl              27.0492050698       35.4986135177        4.2595687529
Cl              28.1297015585       32.1522860926        4.2859222515
Cl              24.8378647842       33.0487928772        3.1408953813



     Writing config-only to output data dir ./ns.save/ :
     XML data file
     NEW-OLD atomic charge density approx. for the potential

     Check: negative core charge=   -0.000001

     negative rho (up, down):  5.280E-02 0.000E+00

     total cpu time spent up to now is    83189.1 secs

     Self-consistent Calculation

     iteration #  1     ecut=    45.33 Ry     beta= 0.70
     Davidson diagonalization with overlap
     ethr =  1.00E-06,  avg # of iterations =  6.0

     negative rho (up, down):  5.375E-02 0.000E+00

     total cpu time spent up to now is    83378.0 secs

     total energy              =   -3886.28057368 Ry
     estimated scf accuracy    <       0.01334893 Ry

     iteration #  2     ecut=    45.33 Ry     beta= 0.70
     Davidson diagonalization with overlap
     ethr =  1.67E-06,  avg # of iterations =  4.0

     negative rho (up, down):  5.265E-02 0.000E+00

     total cpu time spent up to now is    83495.0 secs

     total energy              =   -3886.25914834 Ry
     estimated scf accuracy    <       1.48623247 Ry

     iteration #  3     ecut=    45.33 Ry     beta= 0.70
     Davidson diagonalization with overlap
     ethr =  1.67E-06,  avg # of iterations =  5.0

     negative rho (up, down):  5.209E-02 0.000E+00

     total cpu time spent up to now is    83609.6 secs

     total energy              =   -3886.28264756 Ry
     estimated scf accuracy    <       0.07209298 Ry

     iteration #  4     ecut=    45.33 Ry     beta= 0.70
     Davidson diagonalization with overlap
     ethr =  1.67E-06,  avg # of iterations =  2.0

     negative rho (up, down):  5.231E-02 0.000E+00

     total cpu time spent up to now is    83719.8 secs

     total energy              =   -3886.28314146 Ry
     estimated scf accuracy    <       0.06442866 Ry

     iteration #  5     ecut=    45.33 Ry     beta= 0.70
     Davidson diagonalization with overlap
     ethr =  1.67E-06,  avg # of iterations =  2.0

     negative rho (up, down):  5.241E-02 0.000E+00

     total cpu time spent up to now is    83831.1 secs

     total energy              =   -3886.28451685 Ry
     estimated scf accuracy    <       0.00801113 Ry

     iteration #  6     ecut=    45.33 Ry     beta= 0.70
     Davidson diagonalization with overlap
     ethr =  1.00E-06,  avg # of iterations =  2.0

     negative rho (up, down):  5.247E-02 0.000E+00

     total cpu time spent up to now is    83941.9 secs

     total energy              =   -3886.28470905 Ry
     estimated scf accuracy    <       0.00891301 Ry

     iteration #  7     ecut=    45.33 Ry     beta= 0.70
     Davidson diagonalization with overlap

     Maximum CPU time exceeded

     max_seconds     =   84000.00
     elapsed seconds =   84002.42
     Calculation stopped in k-point loop, point #     1
     Calculation stopped in scf loop at iteration #     6

     Writing config to output data dir ./ns.save/ :
     XML data file, charge density distributed wavefunctions
 
     init_run     :     81.60s CPU     84.82s WALL (       1 calls)
     electrons    :  75216.92s CPU  82331.45s WALL (      31 calls)
     update_pot   :     78.08s CPU     82.31s WALL (      30 calls)
     forces       :    834.05s CPU   1110.44s WALL (      30 calls)
     force_dftd3  :      3.22s CPU      3.24s WALL (      30 calls)

     Called by init_run:
     wfcinit      :     46.58s CPU     47.50s WALL (       1 calls)
     potinit      :      1.47s CPU      1.68s WALL (       1 calls)
     hinit0       :      1.88s CPU      2.02s WALL (       1 calls)

     Called by electrons:
     c_bands      :  50038.10s CPU  51086.38s WALL (     720 calls)
     sum_band     :  15687.11s CPU  18757.66s WALL (     719 calls)
     v_of_rho     :    631.55s CPU    704.55s WALL (     750 calls)
     newd         :   4007.84s CPU   6668.42s WALL (     750 calls)
     PAW_pot      :    250.72s CPU    251.73s WALL (     780 calls)
     mix_rho      :   4702.99s CPU   5030.79s WALL (     719 calls)
     energy_dftd3 :      1.57s CPU      1.58s WALL (      31 calls)

     Called by c_bands:
     init_us_2    :    752.61s CPU    760.82s WALL (    1470 calls)
     cegterg      :  48842.37s CPU  49875.87s WALL (     720 calls)

     Called by *egterg:
     cdiaghg      :    194.08s CPU    195.57s WALL (    2420 calls)
     h_psi        :  33524.33s CPU  33963.55s WALL (    2451 calls)
     s_psi        :   4556.50s CPU   4589.25s WALL (    2451 calls)
     g_psi        :     64.30s CPU     65.08s WALL (    1730 calls)

     Called by h_psi:
     h_psi:calbec :   4571.68s CPU   4609.36s WALL (    2451 calls)
     vloc_psi     :  24277.31s CPU  24498.67s WALL (    2451 calls)
     add_vuspsi   :   4588.20s CPU   4628.10s WALL (    2451 calls)

     General routines
     calbec       :   7080.98s CPU   7139.66s WALL (    3320 calls)
     fft          :   1188.39s CPU   1265.26s WALL (   10050 calls)
     ffts         :   2007.46s CPU   2290.48s WALL (   86216 calls)
     fftw         :  22342.91s CPU  22528.86s WALL ( 1829484 calls)
     interpolate  :     67.07s CPU     74.52s WALL (     750 calls)
     davcio       :      0.00s CPU      0.23s WALL (      13 calls)
 
     Parallel routines
 
     PWSCF        :     21h15m CPU     23h20m WALL

 
   This run was terminated on:  20:47:45  16Apr2025            

=------------------------------------------------------------------------------=
   JOB DONE.
=------------------------------------------------------------------------------=
