
     Program PWSCF v.7.3.1 starts on  1Aug2025 at 12: 3:27 

     This program is part of the open-source Quantum ESPRESSO suite
     for quantum simulation of materials; please cite
         "P. Giannozzi et al., J. Phys.:Condens. Matter 21 395502 (2009);
         "P. Giannozzi et al., J. Phys.:Condens. Matter 29 465901 (2017);
         "P. Giannozzi et al., J. Chem. Phys. 152 154105 (2020);
          URL http://www.quantum-espresso.org", 
     in publications or presentations arising from this work. More details at
     http://www.quantum-espresso.org/quote

     Parallel version (MPI), running on     8 processors

     MPI processes distributed on     1 nodes
     455239 MiB available memory on the printing compute node when the environment starts
 
     Reading input from pw.in
Warning: card &CELL ignored
Warning: card / ignored

     Current dimensions of program PWSCF are:
     Max number of different atomic species (ntypx) = 10
     Max number of k-points (npk) =  40000
     Max angular momentum in pseudopotentials (lmaxx) =  4
     file C.pbe-n-kjpaw_psl.1.0.0.UPF: wavefunction(s)  2S 2P renormalized
     file Al.pbe-n-kjpaw_psl.1.0.0.UPF: wavefunction(s)  3S 3P renormalized
     file Cl.pbe-n-kjpaw_psl.1.0.0.UPF: wavefunction(s)  3S 3P renormalized
 
     R & G space division:  proc/nbgrp/npool/nimage =       8
     Subspace diagonalization in iterative solution of the eigenvalue problem:
     one sub-group per band group will be used
     scalapack distributed-memory algorithm (size of sub-group:  2*  2 procs)

 
     Parallelization info
     --------------------
     sticks:   dense  smooth     PW     G-vecs:    dense   smooth      PW
     Min       28973   16104   4030              3672643  1521664  190243
     Max       28975   16106   4032              3672644  1521665  190244
     Sum      231789  128845  32249             29381147 12173313 1521951
 
     Using Slab Decomposition
 


     bravais-lattice index     =            0
     lattice parameter (alat)  =      94.4863  a.u.
     unit-cell volume          =  295239.6341 (a.u.)^3
     number of atoms/cell      =          197
     number of atomic types    =            3
     number of electrons       =       799.00
     number of Kohn-Sham states=          480
     kinetic-energy cutoff     =      45.3312  Ry
     charge density cutoff     =     326.2606  Ry
     scf convergence threshold =      1.0E-04
     mixing beta               =       0.1000
     number of iterations used =            8  plain     mixing
     energy convergence thresh.=      1.0E-04
     force convergence thresh. =      1.0E-03
     Exchange-correlation= SLA  PW   PBX  PBC
                           (   1   4   3   4   0   0   0)
     nstep                     =          200


     celldm(1)=  94.486306  celldm(2)=   0.000000  celldm(3)=   0.000000
     celldm(4)=   0.000000  celldm(5)=   0.000000  celldm(6)=   0.000000

     crystal axes: (cart. coord. in units of alat)
               a(1) = (   1.000000   0.000000   0.000000 )  
               a(2) = (   0.000000   1.000000   0.000000 )  
               a(3) = (   0.000000   0.000000   0.350000 )  

     reciprocal axes: (cart. coord. in units 2 pi/alat)
               b(1) = (  1.000000  0.000000  0.000000 )  
               b(2) = (  0.000000  1.000000  0.000000 )  
               b(3) = (  0.000000  0.000000  2.857143 )  


     PseudoPot. # 1 for C  read from file:
     /home/elmer.barquero/carbon_nn/pseudo/C.pbe-n-kjpaw_psl.1.0.0.UPF
     MD5 check sum: 5f16ad9a65e90284d1d834d4ab3b0f7d
     Pseudo is Projector augmented-wave + core cor, Zval =  4.0
     Generated using &quot;atomic&quot; code by A. Dal Corso  v.6.3
     Shape of augmentation charge: PSQ
     Using radial grid of 1073 points,  4 beta functions with: 
                l(1) =   0
                l(2) =   0
                l(3) =   1
                l(4) =   1
     Q(r) pseudized with 0 coefficients 


     PseudoPot. # 2 for Al read from file:
     /home/elmer.barquero/carbon_nn/pseudo/Al.pbe-n-kjpaw_psl.1.0.0.UPF
     MD5 check sum: 502b6b27b9c6270cab5dd1084b96fa6d
     Pseudo is Projector augmented-wave + core cor, Zval =  3.0
     Generated using &quot;atomic&quot; code by A. Dal Corso  v.6.3
     Shape of augmentation charge: PSQ
     Using radial grid of 1135 points,  6 beta functions with: 
                l(1) =   0
                l(2) =   0
                l(3) =   1
                l(4) =   1
                l(5) =   2
                l(6) =   2
     Q(r) pseudized with 0 coefficients 


     PseudoPot. # 3 for Cl read from file:
     /home/elmer.barquero/carbon_nn/pseudo/Cl.pbe-n-kjpaw_psl.1.0.0.UPF
     MD5 check sum: 530da96d25dcb7781b0586ca00827062
     Pseudo is Projector augmented-wave + core cor, Zval =  7.0
     Generated using &quot;atomic&quot; code by A. Dal Corso  v.6.3
     Shape of augmentation charge: PSQ
     Using radial grid of 1157 points,  6 beta functions with: 
                l(1) =   0
                l(2) =   0
                l(3) =   1
                l(4) =   1
                l(5) =   2
                l(6) =   2
     Q(r) pseudized with 0 coefficients 


     atomic species   valence    mass     pseudopotential
     C                 4.00    12.01100     C ( 1.00)
     Al                3.00    26.98154     Al( 1.00)
     Cl                7.00    35.45000     Cl( 1.00)

     No symmetry found



   Cartesian axes

     site n.     atom                  positions (alat units)
         1        C      tau(   1) = (   0.6166860   0.4384695   0.0187519  )
         2        C      tau(   2) = (   0.6003894   0.5132267   0.1430859  )
         3        C      tau(   3) = (   0.5446482   0.5775385   0.0003594  )
         4        C      tau(   4) = (   0.4636858   0.6013250   0.0003423  )
         5        C      tau(   5) = (   0.3833236   0.5760316   0.0002793  )
         6        C      tau(   6) = (   0.3381571   0.5054522   0.0002625  )
         7        C      tau(   7) = (   0.3502194   0.4222491   0.0002434  )
         8        C      tau(   8) = (   0.4072388   0.3596472   0.0002361  )
         9        C      tau(   9) = (   0.4861825   0.3283813   0.0002169  )
        10        C      tau(  10) = (   0.5710002   0.3324763   0.0001877  )
        11        C      tau(  11) = (   0.6449573   0.3736088   0.0001728  )
        12        C      tau(  12) = (   0.6854474   0.4474079   0.0001397  )
        13        C      tau(  13) = (   0.6799082   0.5318598   0.0001301  )
        14        C      tau(  14) = (   0.6511548   0.6122100   0.0001070  )
        15        C      tau(  15) = (   0.6188216   0.6911619   0.0001761  )
        16        C      tau(  16) = (   0.5769448   0.7753584   0.1416209  )
        17        C      tau(  17) = (   0.6146234   0.4589080   0.0039973  )
        18        C      tau(  18) = (   0.5877517   0.5347418   0.1443408  )
        19        C      tau(  19) = (   0.5192575   0.5904013   0.0003588  )
        20        C      tau(  20) = (   0.4352926   0.5986431   0.0003122  )
        21        C      tau(  21) = (   0.3626303   0.5564385   0.0002741  )
        22        C      tau(  22) = (   0.3358251   0.4770575   0.0002487  )
        23        C      tau(  23) = (   0.3654956   0.3981938   0.0002438  )
        24        C      tau(  24) = (   0.4319718   0.3455063   0.0002297  )
        25        C      tau(  25) = (   0.5145516   0.3257077   0.0002059  )
        26        C      tau(  26) = (   0.5978247   0.3420628   0.0001800  )
        27        C      tau(  27) = (   0.6634197   0.3952844   0.0001664  )
        28        C      tau(  28) = (   0.6882050   0.4757249   0.0001313  )
        29        C      tau(  29) = (   0.6714436   0.5590231   0.0001217  )
        30        C      tau(  30) = (   0.6405062   0.6386059   0.0001037  )
        31        C      tau(  31) = (   0.6069723   0.7170599   0.0002286  )
        32        C      tau(  32) = (   0.5636170   0.7967669   0.1403178  )
        33        C      tau(  33) = (   0.6145178   0.4840465   0.0196082  )
        34        C      tau(  34) = (   0.5806158   0.5501521   0.0249475  )
        35        C      tau(  35) = (   0.5064302   0.5968251   0.0239273  )
        36        C      tau(  36) = (   0.4208417   0.5963833   0.0237933  )
        37        C      tau(  37) = (   0.3527317   0.5455320   0.0237028  )
        38        C      tau(  38) = (   0.3357080   0.4623479   0.0236930  )
        39        C      tau(  39) = (   0.3734759   0.3858202   0.0236406  )
        40        C      tau(  40) = (   0.4445093   0.3378608   0.0236469  )
        41        C      tau(  41) = (   0.5291299   0.3241195   0.0236668  )
        42        C      tau(  42) = (   0.6116170   0.3471773   0.0236286  )
        43        C      tau(  43) = (   0.6736384   0.4062584   0.0233507  )
        44        C      tau(  44) = (   0.6901556   0.4900900   0.0235395  )
        45        C      tau(  45) = (   0.6674892   0.5727978   0.0238688  )
        46        C      tau(  46) = (   0.6355115   0.6524418   0.0238171  )
        47        C      tau(  47) = (   0.5995448   0.7325062   0.0219836  )
        48        C      tau(  48) = (   0.5632227   0.7959882   0.0163805  )
        49        C      tau(  49) = (   0.6076625   0.5108999   0.0227663  )
        50        C      tau(  50) = (   0.5586215   0.5672725   0.0220217  )
        51        C      tau(  51) = (   0.4785783   0.6022027   0.0237842  )
        52        C      tau(  52) = (   0.3947874   0.5852454   0.0237354  )
        53        C      tau(  53) = (   0.3404927   0.5199609   0.0237164  )
        54        C      tau(  54) = (   0.3428624   0.4349324   0.0236974  )
        55        C      tau(  55) = (   0.3942247   0.3665525   0.0236321  )
        56        C      tau(  56) = (   0.4715131   0.3293707   0.0236438  )
        57        C      tau(  57) = (   0.5572330   0.3275705   0.0236793  )
        58        C      tau(  58) = (   0.6352160   0.3628223   0.0236390  )
        59        C      tau(  59) = (   0.6847677   0.4323550   0.0232609  )
        60        C      tau(  60) = (   0.6857142   0.5180346   0.0234885  )
        61        C      tau(  61) = (   0.6570387   0.5990399   0.0238614  )
        62        C      tau(  62) = (   0.6249637   0.6785618   0.0239593  )
        63        C      tau(  63) = (   0.5863461   0.7573008   0.0230727  )
        64        C      tau(  64) = (   0.5743614   0.7768209   0.0049758  )
        65        C      tau(  65) = (   0.6227008   0.4435297   0.0467078  )
        66        C      tau(  66) = (   0.6087621   0.5229087   0.0484423  )
        67        C      tau(  67) = (   0.5464120   0.5780329   0.0479359  )
        68        C      tau(  68) = (   0.4636742   0.6028186   0.0484653  )
        69        C      tau(  69) = (   0.3821703   0.5771729   0.0483998  )
        70        C      tau(  70) = (   0.3366089   0.5055059   0.0483884  )
        71        C      tau(  71) = (   0.3484987   0.4210369   0.0483315  )
        72        C      tau(  72) = (   0.4057231   0.3569887   0.0482617  )
        73        C      tau(  73) = (   0.4859202   0.3255618   0.0482999  )
        74        C      tau(  74) = (   0.5718740   0.3304507   0.0483412  )
        75        C      tau(  75) = (   0.6472028   0.3721078   0.0481440  )
        76        C      tau(  76) = (   0.6895898   0.4465314   0.0478760  )
        77        C      tau(  77) = (   0.6830403   0.5323132   0.0483212  )
        78        C      tau(  78) = (   0.6518312   0.6128778   0.0486617  )
        79        C      tau(  79) = (   0.6190517   0.6930780   0.0481065  )
        80        C      tau(  80) = (   0.5807427   0.7688523   0.0484759  )
        81        C      tau(  81) = (   0.6238952   0.4727384   0.0450462  )
        82        C      tau(  82) = (   0.5916588   0.5450370   0.0497106  )
        83        C      tau(  83) = (   0.5210162   0.5912790   0.0481611  )
        84        C      tau(  84) = (   0.4353822   0.6001235   0.0484486  )
        85        C      tau(  85) = (   0.3615176   0.5576615   0.0483749  )
        86        C      tau(  86) = (   0.3342471   0.4771846   0.0483824  )
        87        C      tau(  87) = (   0.3634501   0.3968598   0.0483062  )
        88        C      tau(  88) = (   0.4304022   0.3428798   0.0482688  )
        89        C      tau(  89) = (   0.5142312   0.3230498   0.0483173  )
        90        C      tau(  90) = (   0.5985980   0.3401233   0.0483233  )
        91        C      tau(  91) = (   0.6662468   0.3932692   0.0479891  )
        92        C      tau(  92) = (   0.6922561   0.4748817   0.0479742  )
        93        C      tau(  93) = (   0.6738105   0.5591460   0.0484917  )
        94        C      tau(  94) = (   0.6411228   0.6391133   0.0486495  )
        95        C      tau(  95) = (   0.6071954   0.7190365   0.0475874  )
        96        C      tau(  96) = (   0.5655723   0.7940972   0.0454265  )
        97        C      tau(  97) = (   0.6256685   0.4842436   0.0700191  )
        98        C      tau(  98) = (   0.5816412   0.5552386   0.0742060  )
        99        C      tau(  99) = (   0.5069487   0.5962142   0.0729404  )
       100        C      tau( 100) = (   0.4208408   0.5969557   0.0729994  )
       101        C      tau( 101) = (   0.3524973   0.5458936   0.0729979  )
       102        C      tau( 102) = (   0.3351232   0.4623399   0.0729933  )
       103        C      tau( 103) = (   0.3722683   0.3848439   0.0728845  )
       104        C      tau( 104) = (   0.4435707   0.3359771   0.0728580  )
       105        C      tau( 105) = (   0.5290605   0.3224602   0.0729323  )
       106        C      tau( 106) = (   0.6122606   0.3462441   0.0728696  )
       107        C      tau( 107) = (   0.6750147   0.4054251   0.0724923  )
       108        C      tau( 108) = (   0.6927665   0.4895056   0.0726254  )
       109        C      tau( 109) = (   0.6691013   0.5729431   0.0732109  )
       110        C      tau( 110) = (   0.6355744   0.6532413   0.0731225  )
       111        C      tau( 111) = (   0.6014499   0.7320213   0.0721675  )
       112        C      tau( 112) = (   0.5583467   0.8068018   0.0686637  )
       113        C      tau( 113) = (   0.6163827   0.5103024   0.0725375  )
       114        C      tau( 114) = (   0.5589413   0.5720173   0.0729727  )
       115        C      tau( 115) = (   0.4786549   0.6018538   0.0729683  )
       116        C      tau( 116) = (   0.3943754   0.5856067   0.0730124  )
       117        C      tau( 117) = (   0.3401387   0.5198864   0.0730205  )
       118        C      tau( 118) = (   0.3421552   0.4343942   0.0729694  )
       119        C      tau( 119) = (   0.3931853   0.3649854   0.0728541  )
       120        C      tau( 120) = (   0.4711263   0.3274366   0.0728744  )
       121        C      tau( 121) = (   0.5576498   0.3262504   0.0729491  )
       122        C      tau( 122) = (   0.6364022   0.3620551   0.0727922  )
       123        C      tau( 123) = (   0.6868760   0.4317681   0.0724016  )
       124        C      tau( 124) = (   0.6879394   0.5179210   0.0727659  )
       125        C      tau( 125) = (   0.6579403   0.5994278   0.0732534  )
       126        C      tau( 126) = (   0.6245954   0.6798342   0.0729852  )
       127        C      tau( 127) = (   0.5881833   0.7569404   0.0723984  )
       128        C      tau( 128) = (   0.5433794   0.8296929   0.0786141  )
       129        C      tau( 129) = (   0.6217645   0.4377269   0.0734202  )
       130        C      tau( 130) = (   0.6062265   0.5195415   0.0973088  )
       131        C      tau( 131) = (   0.5466938   0.5795986   0.0980940  )
       132        C      tau( 132) = (   0.4636580   0.6033391   0.0977178  )
       133        C      tau( 133) = (   0.3811238   0.5783182   0.0977142  )
       134        C      tau( 134) = (   0.3352169   0.5055795   0.0977230  )
       135        C      tau( 135) = (   0.3469775   0.4199825   0.0976233  )
       136        C      tau( 136) = (   0.4044639   0.3548043   0.0974945  )
       137        C      tau( 137) = (   0.4856440   0.3231443   0.0975432  )
       138        C      tau( 138) = (   0.5726156   0.3287256   0.0976066  )
       139        C      tau( 139) = (   0.6487314   0.3710412   0.0973720  )
       140        C      tau( 140) = (   0.6919632   0.4459907   0.0970518  )
       141        C      tau( 141) = (   0.6849645   0.5324443   0.0975805  )
       142        C      tau( 142) = (   0.6524076   0.6135088   0.0979307  )
       143        C      tau( 143) = (   0.6187017   0.6938683   0.0977157  )
       144        C      tau( 144) = (   0.5808978   0.7701072   0.0964022  )
       145        C      tau( 145) = (   0.6232467   0.4616920   0.0898790  )
       146        C      tau( 146) = (   0.5902331   0.5430343   0.0986525  )
       147        C      tau( 147) = (   0.5211083   0.5920548   0.0976993  )
       148        C      tau( 148) = (   0.4353624   0.6013418   0.0976636  )
       149        C      tau( 149) = (   0.3605007   0.5587773   0.0976823  )
       150        C      tau( 150) = (   0.3327655   0.4772679   0.0977024  )
       151        C      tau( 151) = (   0.3617004   0.3956655   0.0975744  )
       152        C      tau( 152) = (   0.4291018   0.3406180   0.0974974  )
       153        C      tau( 153) = (   0.5139735   0.3207877   0.0975796  )
       154        C      tau( 154) = (   0.5992977   0.3385529   0.0975810  )
       155        C      tau( 155) = (   0.6676789   0.3922386   0.0972279  )
       156        C      tau( 156) = (   0.6947620   0.4742597   0.0971470  )
       157        C      tau( 157) = (   0.6754053   0.5591111   0.0978154  )
       158        C      tau( 158) = (   0.6414486   0.6395982   0.0979255  )
       159        C      tau( 159) = (   0.6072725   0.7198687   0.0977667  )
       160        C      tau( 160) = (   0.5668965   0.7940014   0.0940716  )
       161        C      tau( 161) = (   0.6168758   0.4746259   0.1123591  )
       162        C      tau( 162) = (   0.5777883   0.5516075   0.1239904  )
       163        C      tau( 163) = (   0.5049034   0.5975131   0.1197309  )
       164        C      tau( 164) = (   0.4182931   0.5976451   0.1195197  )
       165        C      tau( 165) = (   0.3500009   0.5449002   0.1196018  )
       166        C      tau( 166) = (   0.3337525   0.4598706   0.1196223  )
       167        C      tau( 167) = (   0.3720211   0.3816043   0.1194794  )
       168        C      tau( 168) = (   0.4446333   0.3328116   0.1194385  )
       169        C      tau( 169) = (   0.5313267   0.3204471   0.1195434  )
       170        C      tau( 170) = (   0.6151414   0.3458215   0.1194776  )
       171        C      tau( 171) = (   0.6777076   0.4065234   0.1190904  )
       172        C      tau( 172) = (   0.6944923   0.4913651   0.1192967  )
       173        C      tau( 173) = (   0.6693161   0.5749606   0.1200790  )
       174        C      tau( 174) = (   0.6351027   0.6553696   0.1201857  )
       175        C      tau( 175) = (   0.6009189   0.7336899   0.1212760  )
       176        C      tau( 176) = (   0.5565417   0.8091417   0.1166200  )
       177        C      tau( 177) = (   0.6095227   0.5005842   0.1196193  )
       178        C      tau( 178) = (   0.5582446   0.5708172   0.1217538  )
       179        C      tau( 179) = (   0.4805753   0.6024844   0.1199895  )
       180        C      tau( 180) = (   0.3953660   0.5880830   0.1197869  )
       181        C      tau( 181) = (   0.3393547   0.5224391   0.1196916  )
       182        C      tau( 182) = (   0.3397348   0.4357686   0.1195884  )
       183        C      tau( 183) = (   0.3899836   0.3644564   0.1194259  )
       184        C      tau( 184) = (   0.4683790   0.3255016   0.1194478  )
       185        C      tau( 185) = (   0.5559339   0.3238163   0.1195385  )
       186        C      tau( 186) = (   0.6359170   0.3594478   0.1193839  )
       187        C      tau( 187) = (   0.6879278   0.4291677   0.1190496  )
       188        C      tau( 188) = (   0.6901727   0.5157965   0.1194699  )
       189        C      tau( 189) = (   0.6594850   0.5977558   0.1199120  )
       190        C      tau( 190) = (   0.6255036   0.6782530   0.1198340  )
       191        C      tau( 191) = (   0.5873310   0.7579592   0.1222863  )
       192        C      tau( 192) = (   0.5419220   0.8308456   0.1035920  )
       193        Al     tau( 193) = (   0.5369463   0.6741398   0.0945526  )
       194        Cl     tau( 194) = (   0.5539596   0.6739884   0.0548060  )
       195        Cl     tau( 195) = (   0.5411480   0.7136696   0.1126288  )
       196        Cl     tau( 196) = (   0.5590311   0.6460808   0.1190563  )
       197        Cl     tau( 197) = (   0.4949210   0.6652382   0.0925717  )

     --------------------------------------------
     DFT-D3 Dispersion Correction (3-body terms):
     --------------------------------------------
       Reference C6 values for interpolation: 

         atom   Coordination number   C6
         C          0.000            98.23
         C          0.987            86.49
         C          1.998            58.72
         C          2.999            51.56
         C          3.984            36.41
         Al         0.000          1081.08
         Al         0.965           875.51
         Al         1.931           513.50
         Al         2.915           307.19
         Cl         0.000           184.69
         Cl         0.997           180.80

       Values used:

         atom   Coordination number  R0_AB[au]  C6      C8
         C          2.346            2.750     57.07   1650.44
         C          2.193            2.750     58.21   1683.46
         C          2.166            2.750     58.34   1687.26
         C          2.183            2.750     58.26   1684.98
         C          2.186            2.750     58.25   1684.57
         C          2.187            2.750     58.24   1684.40
         C          2.187            2.750     58.24   1684.44
         C          2.186            2.750     58.24   1684.47
         C          2.185            2.750     58.25   1684.66
         C          2.184            2.750     58.25   1684.77
         C          2.189            2.750     58.23   1684.07
         C          2.197            2.750     58.19   1682.96
         C          2.184            2.750     58.25   1684.77
         C          2.176            2.750     58.29   1685.97
         C          2.180            2.750     58.28   1685.42
         C          2.262            2.750     57.80   1671.61
         C          2.296            2.750     57.53   1663.92
         C          2.220            2.750     58.06   1679.31
         C          2.181            2.750     58.27   1685.19
         C          2.183            2.750     58.26   1684.89
         C          2.187            2.750     58.24   1684.41
         C          2.186            2.750     58.25   1684.56
         C          2.186            2.750     58.24   1684.49
         C          2.186            2.750     58.25   1684.57
         C          2.184            2.750     58.25   1684.77
         C          2.185            2.750     58.25   1684.68
         C          2.196            2.750     58.19   1683.09
         C          2.193            2.750     58.21   1683.49
         C          2.180            2.750     58.28   1685.43
         C          2.176            2.750     58.29   1685.90
         C          2.180            2.750     58.27   1685.35
         C          2.180            2.750     58.27   1685.31
         C          3.253            2.750     49.37   1427.77
         C          2.316            2.750     57.36   1658.86
         C          3.246            2.750     49.47   1430.86
         C          3.249            2.750     49.43   1429.55
         C          3.249            2.750     49.43   1429.62
         C          3.249            2.750     49.43   1429.64
         C          3.248            2.750     49.44   1429.86
         C          3.249            2.750     49.43   1429.72
         C          3.248            2.750     49.44   1429.96
         C          3.250            2.750     49.42   1429.21
         C          3.252            2.750     49.38   1428.12
         C          3.254            2.750     49.35   1427.21
         C          3.250            2.750     49.41   1428.89
         C          3.252            2.750     49.38   1428.29
         C          3.183            2.750     50.24   1453.00
         C          2.267            2.750     57.76   1670.54
         C          2.312            2.750     57.39   1659.87
         C          3.154            2.750     50.50   1460.59
         C          3.247            2.750     49.46   1430.37
         C          3.248            2.750     49.44   1429.75
         C          3.249            2.750     49.43   1429.65
         C          3.249            2.750     49.43   1429.65
         C          3.248            2.750     49.44   1429.84
         C          3.248            2.750     49.44   1429.88
         C          3.248            2.750     49.44   1429.91
         C          3.252            2.750     49.39   1428.33
         C          3.253            2.750     49.37   1427.88
         C          3.252            2.750     49.39   1428.37
         C          3.249            2.750     49.43   1429.51
         C          3.256            2.750     49.33   1426.62
         C          3.318            2.750     48.21   1394.32
         C          2.326            2.750     57.26   1656.11
         C          3.335            2.750     47.83   1383.38
         C          3.380            2.750     46.74   1351.75
         C          3.292            2.750     48.72   1408.97
         C          3.299            2.750     48.59   1405.32
         C          3.300            2.750     48.56   1404.31
         C          3.300            2.750     48.56   1404.52
         C          3.299            2.750     48.59   1405.24
         C          3.298            2.750     48.61   1405.76
         C          3.297            2.750     48.62   1406.16
         C          3.297            2.750     48.62   1406.23
         C          3.301            2.750     48.55   1404.29
         C          3.306            2.750     48.45   1401.27
         C          3.300            2.750     48.56   1404.32
         C          3.295            2.750     48.65   1407.13
         C          3.299            2.750     48.58   1404.98
         C          3.542            2.750     42.08   1216.89
         C          3.811            2.750     37.42   1082.21
         C          3.351            2.750     47.46   1372.60
         C          3.287            2.750     48.81   1411.60
         C          3.299            2.750     48.58   1405.02
         C          3.301            2.750     48.55   1404.16
         C          3.300            2.750     48.57   1404.85
         C          3.298            2.750     48.60   1405.47
         C          3.297            2.750     48.61   1405.98
         C          3.297            2.750     48.63   1406.38
         C          3.298            2.750     48.61   1405.74
         C          3.304            2.750     48.49   1402.40
         C          3.304            2.750     48.50   1402.57
         C          3.297            2.750     48.62   1406.13
         C          3.297            2.750     48.62   1406.07
         C          3.309            2.750     48.38   1399.37
         C          3.324            2.750     48.09   1390.74
         C          3.533            2.750     42.32   1224.09
         C          3.303            2.750     48.51   1403.12
         C          3.324            2.750     48.08   1390.53
         C          3.330            2.750     47.95   1386.72
         C          3.329            2.750     47.98   1387.54
         C          3.326            2.750     48.03   1389.09
         C          3.324            2.750     48.07   1390.37
         C          3.323            2.750     48.09   1390.87
         C          3.323            2.750     48.10   1391.04
         C          3.324            2.750     48.08   1390.52
         C          3.331            2.750     47.93   1386.25
         C          3.329            2.750     47.97   1387.45
         C          3.323            2.750     48.10   1391.18
         C          3.318            2.750     48.21   1394.21
         C          3.314            2.750     48.29   1396.54
         C          3.298            2.750     48.59   1405.41
         C          3.340            2.750     47.74   1380.60
         C          3.299            2.750     48.58   1404.93
         C          3.326            2.750     48.04   1389.29
         C          3.325            2.750     48.05   1389.63
         C          3.327            2.750     48.01   1388.59
         C          3.326            2.750     48.04   1389.43
         C          3.324            2.750     48.08   1390.47
         C          3.323            2.750     48.09   1390.91
         C          3.324            2.750     48.08   1390.60
         C          3.326            2.750     48.03   1389.12
         C          3.329            2.750     47.97   1387.36
         C          3.325            2.750     48.05   1389.70
         C          3.326            2.750     48.04   1389.29
         C          3.323            2.750     48.10   1391.26
         C          3.314            2.750     48.28   1396.48
         C          2.285            2.750     57.63   1666.71
         C          2.273            2.750     57.72   1669.35
         C          3.375            2.750     46.89   1356.02
         C          3.236            2.750     49.62   1434.99
         C          3.258            2.750     49.28   1425.39
         C          3.250            2.750     49.42   1429.21
         C          3.246            2.750     49.47   1430.66
         C          3.243            2.750     49.51   1431.82
         C          3.242            2.750     49.53   1432.43
         C          3.242            2.750     49.53   1432.51
         C          3.242            2.750     49.53   1432.45
         C          3.244            2.750     49.50   1431.56
         C          3.250            2.750     49.42   1429.25
         C          3.249            2.750     49.43   1429.48
         C          3.247            2.750     49.45   1430.32
         C          3.264            2.750     49.19   1422.79
         C          3.386            2.750     46.58   1347.28
         C          3.255            2.750     49.33   1426.75
         C          3.355            2.750     47.39   1370.46
         C          3.274            2.750     49.03   1418.03
         C          3.246            2.750     49.47   1430.65
         C          3.246            2.750     49.47   1430.75
         C          3.245            2.750     49.48   1431.16
         C          3.243            2.750     49.51   1432.01
         C          3.242            2.750     49.53   1432.43
         C          3.242            2.750     49.52   1432.32
         C          3.242            2.750     49.52   1432.30
         C          3.246            2.750     49.47   1430.79
         C          3.250            2.750     49.41   1428.98
         C          3.251            2.750     49.40   1428.67
         C          3.253            2.750     49.37   1428.00
         C          3.232            2.750     49.67   1436.49
         C          3.547            2.750     41.93   1212.55
         C          2.295            2.750     57.54   1664.21
         C          3.189            2.750     50.17   1451.02
         C          2.237            2.750     57.96   1676.38
         C          2.230            2.750     58.01   1677.67
         C          2.224            2.750     58.04   1678.63
         C          2.221            2.750     58.06   1679.13
         C          2.220            2.750     58.07   1679.38
         C          2.220            2.750     58.07   1679.39
         C          2.220            2.750     58.07   1679.40
         C          2.220            2.750     58.06   1679.28
         C          2.224            2.750     58.04   1678.75
         C          2.223            2.750     58.05   1678.88
         C          2.216            2.750     58.09   1680.08
         C          2.214            2.750     58.10   1680.29
         C          2.205            2.750     58.15   1681.76
         C          3.332            2.750     47.91   1385.78
         C          3.211            2.750     49.94   1444.22
         C          2.211            2.750     58.11   1680.77
         C          2.220            2.750     58.06   1679.33
         C          2.215            2.750     58.09   1680.14
         C          2.220            2.750     58.06   1679.32
         C          2.221            2.750     58.06   1679.17
         C          2.221            2.750     58.06   1679.20
         C          2.220            2.750     58.06   1679.30
         C          2.221            2.750     58.06   1679.22
         C          2.222            2.750     58.06   1679.07
         C          2.223            2.750     58.05   1678.82
         C          2.223            2.750     58.05   1678.91
         C          2.227            2.750     58.03   1678.20
         C          2.229            2.750     58.02   1677.90
         C          3.194            2.750     50.12   1449.46
         C          2.267            2.750     57.76   1670.63
         Al         3.989            3.789    307.19  29441.36
         Cl         1.072            2.933    180.84   7545.14
         Cl         1.090            2.933    180.83   7544.92
         Cl         1.071            2.933    180.84   7545.16
         Cl         1.072            2.933    180.84   7545.15

         Molecular C6 ( Ry / a.u.^6 ) =   2106554.75


     number of k points=     1  Methfessel-Paxton smearing, width (Ry)=  0.0200
                       cart. coord. in units 2pi/alat
        k(    1) = (   0.0000000   0.0000000   0.0000000), wk =   2.0000000

     Dense  grid: 29381147 G-vectors     FFT dimensions: ( 576, 576, 192)

     Smooth grid: 12173313 G-vectors     FFT dimensions: ( 405, 405, 144)

     Estimated max dynamical RAM per process >      49.82 GB

     Estimated total dynamical RAM >     398.57 GB

     Atomic positions and unit cell read from directory:
     ./ns.save/
 

     Check: negative core charge=   -0.000001

     The initial density is read from file :
     ./ns.save/charge-density


     negative rho (up, down):  5.314E-02 0.000E+00
     Starting wfcs from file
     Checking if some PAW data can be deallocated... 

     total cpu time spent up to now is       57.3 secs

     Self-consistent Calculation

     iteration #  1     ecut=    45.33 Ry     beta= 0.10
     CG style diagonalization
     ethr =  1.00E-05,  avg # of iterations =  6.5

     negative rho (up, down):  5.314E-02 0.000E+00

     total cpu time spent up to now is     7045.7 secs

     total energy              =   -3886.46085454 Ry
     estimated scf accuracy    <       0.13114837 Ry

     iteration #  2     ecut=    45.33 Ry     beta= 0.10
     CG style diagonalization
     ethr =  1.64E-05,  avg # of iterations =  3.0

     negative rho (up, down):  5.314E-02 0.000E+00

     total cpu time spent up to now is     9723.8 secs

     total energy              =   -3886.45859199 Ry
     estimated scf accuracy    <       1.36775298 Ry

     iteration #  3     ecut=    45.33 Ry     beta= 0.10
     CG style diagonalization
     ethr =  1.64E-05,  avg # of iterations =  3.0

     negative rho (up, down):  5.314E-02 0.000E+00

     total cpu time spent up to now is    12412.2 secs

     total energy              =   -3886.48165177 Ry
     estimated scf accuracy    <       0.00415613 Ry

     iteration #  4     ecut=    45.33 Ry     beta= 0.10
     CG style diagonalization
     ethr =  5.20E-07,  avg # of iterations =  3.0

     negative rho (up, down):  5.313E-02 0.000E+00

     total cpu time spent up to now is    15138.2 secs

     total energy              =   -3886.48168433 Ry
     estimated scf accuracy    <       0.00130029 Ry

     iteration #  5     ecut=    45.33 Ry     beta= 0.10
     CG style diagonalization
     ethr =  1.63E-07,  avg # of iterations =  3.0

     negative rho (up, down):  5.313E-02 0.000E+00

     total cpu time spent up to now is    17887.3 secs

     total energy              =   -3886.48168954 Ry
     estimated scf accuracy    <       0.00210886 Ry

     iteration #  6     ecut=    45.33 Ry     beta= 0.10
     CG style diagonalization
     ethr =  1.63E-07,  avg # of iterations =  3.0

     negative rho (up, down):  5.313E-02 0.000E+00

     total cpu time spent up to now is    20561.1 secs

     total energy              =   -3886.48160922 Ry
     estimated scf accuracy    <       0.00053380 Ry

     iteration #  7     ecut=    45.33 Ry     beta= 0.10
     CG style diagonalization
     ethr =  6.68E-08,  avg # of iterations =  3.1

     negative rho (up, down):  5.313E-02 0.000E+00

     total cpu time spent up to now is    23403.9 secs

     total energy              =   -3886.48162396 Ry
     estimated scf accuracy    <       0.00015765 Ry

     iteration #  8     ecut=    45.33 Ry     beta= 0.10
     CG style diagonalization
     ethr =  1.97E-08,  avg # of iterations =  3.6

     negative rho (up, down):  5.313E-02 0.000E+00

     total cpu time spent up to now is    26834.8 secs

     total energy              =   -3886.48164668 Ry
     estimated scf accuracy    <       0.00010584 Ry

     iteration #  9     ecut=    45.33 Ry     beta= 0.10
     CG style diagonalization
     ethr =  1.32E-08,  avg # of iterations =  3.0

     negative rho (up, down):  5.313E-02 0.000E+00

     total cpu time spent up to now is    29506.3 secs

     End of self-consistent calculation

          k = 0.0000 0.0000 0.0000 (****** PWs)   bands (ev):

   -23.9617 -23.6630 -23.6564 -23.6338 -23.5700 -23.4981 -23.4346 -23.3471
   -23.2884 -23.1912 -23.0731 -22.9767 -22.8782 -22.7837 -22.6734 -22.5532
   -22.4911 -22.4722 -22.4344 -22.4073 -22.3435 -22.3118 -22.2593 -22.1978
   -22.1297 -22.1091 -22.0161 -21.9860 -21.8997 -21.8564 -21.8070 -21.7686
   -21.5602 -21.4653 -21.4006 -21.3549 -21.2019 -21.1135 -21.0743 -20.9886
   -20.8328 -20.7847 -20.6577 -20.5858 -20.4628 -20.4071 -20.3824 -20.3711
   -20.3208 -20.3121 -20.2720 -20.2275 -20.1883 -20.1224 -20.0648 -20.0179
   -19.9771 -19.9678 -19.8780 -19.7427 -19.6771 -19.6451 -19.6059 -19.5335
   -19.4762 -19.4136 -19.3991 -19.3168 -19.2374 -19.1866 -19.1244 -19.0225
   -18.9244 -18.8514 -18.7983 -18.7949 -18.7673 -18.7044 -18.6099 -18.6009
   -18.4860 -18.4109 -18.3664 -18.3224 -18.2919 -18.2669 -18.2510 -18.2435
   -18.1943 -18.1432 -18.0798 -18.0443 -17.9786 -17.9679 -17.9072 -17.8566
   -17.7906 -17.7517 -17.6739 -17.4718 -17.3818 -17.1824 -17.0588 -17.0044
   -16.8893 -16.7521 -16.6282 -16.4995 -16.4195 -16.3910 -16.3528 -16.3527
   -16.3131 -16.2911 -16.2480 -16.2383 -16.2019 -16.1663 -16.1188 -16.0638
   -16.0209 -15.9732 -15.8690 -15.8302 -15.7982 -15.7045 -15.6641 -15.6488
   -15.6151 -15.5953 -15.5795 -15.5200 -15.4750 -15.4407 -15.3925 -15.3663
   -15.3316 -15.2431 -15.1332 -14.9206 -14.7601 -14.6313 -14.5365 -14.4260
   -14.2962 -14.1712 -14.0936 -14.0851 -14.0688 -14.0276 -13.9767 -13.9381
   -13.9272 -13.9146 -13.8696 -13.8282 -13.7881 -13.7482 -13.6792 -13.6680
   -13.6274 -13.6052 -13.5668 -13.5420 -13.4469 -13.3716 -13.2842 -13.2270
   -13.1662 -13.1336 -13.0544 -12.9621 -12.9305 -12.8797 -12.8247 -12.7941
   -12.7800 -12.7681 -12.7625 -12.7403 -12.7023 -12.6782 -12.6573 -12.6202
   -12.5461 -12.5224 -12.4295 -12.3863 -12.3239 -12.2882 -12.1606 -12.1015
   -12.0680 -12.0438 -11.9801 -11.9551 -11.9454 -11.9246 -11.8436 -11.8046
   -11.7886 -11.7670 -11.7552 -11.7252 -11.6983 -11.6900 -11.6772 -11.6311
   -11.5984 -11.5955 -11.5280 -11.5189 -11.4996 -11.4652 -11.4339 -11.4159
   -11.3864 -11.3684 -11.3626 -11.3320 -11.3236 -11.3193 -11.3126 -11.3030
   -11.2705 -11.2629 -11.2035 -11.1679 -11.1538 -11.1348 -11.0987 -11.0963
   -11.0543 -10.9860 -10.9787 -10.9410 -10.9176 -10.8920 -10.8617 -10.7510
   -10.7051 -10.6678 -10.6530 -10.5709 -10.5600 -10.4963 -10.4708 -10.4375
   -10.4015 -10.3906 -10.3662 -10.3411 -10.3122 -10.3001 -10.2740 -10.2337
   -10.2147 -10.1709 -10.1390 -10.0881 -10.0727 -10.0572 -10.0197  -9.9976
    -9.9413  -9.9098  -9.8794  -9.8270  -9.8042  -9.7824  -9.7227  -9.6990
    -9.6671  -9.6480  -9.5900  -9.5823  -9.5543  -9.5360  -9.5093  -9.4954
    -9.4840  -9.4730  -9.4231  -9.4157  -9.3993  -9.3982  -9.3791  -9.3744
    -9.3351  -9.2887  -9.2244  -9.1726  -9.1592  -9.1401  -9.0382  -8.9060
    -8.8424  -8.7742  -8.7195  -8.5534  -8.4806  -8.3871  -8.3366  -8.3220
    -8.2718  -8.2459  -8.2062  -8.1695  -8.1151  -8.0719  -8.0328  -7.9572
    -7.9381  -7.8675  -7.8374  -7.7705  -7.7526  -7.6611  -7.6162  -7.6031
    -7.5683  -7.5632  -7.5323  -7.4649  -7.4004  -7.3758  -7.2924  -7.2479
    -7.2277  -7.2125  -7.2056  -7.1716  -7.1444  -7.1359  -7.1346  -7.0929
    -7.0848  -7.0608  -7.0478  -7.0336  -7.0050  -7.0004  -6.9802  -6.9283
    -6.9084  -6.9006  -6.8861  -6.8318  -6.7969  -6.7864  -6.7803  -6.7623
    -6.6979  -6.6400  -6.5603  -6.5532  -6.5366  -6.4855  -6.4601  -6.4380
    -6.4230  -6.4194  -6.4185  -6.4163  -6.4094  -6.3975  -6.3929  -6.3810
    -6.3778  -6.3548  -6.3463  -6.3195  -6.3096  -6.2966  -6.2797  -6.2709
    -6.2499  -6.2404  -6.2294  -6.2102  -6.1851  -6.1352  -6.1138  -6.0576
    -5.9988  -5.9647  -5.9161  -5.8900  -5.8747  -5.8513  -5.7800  -5.7380
    -5.7156  -5.6773  -5.6238  -5.4412  -5.3054  -5.2022  -5.1636  -5.0695
    -5.0670  -5.0134  -4.9987  -4.9254  -4.8249  -4.7562  -4.6998  -4.6615
    -4.6111  -4.5004  -4.3961  -4.3375  -4.3206  -4.2231  -4.1570  -4.1137
    -4.0281  -4.0075  -3.9647  -3.9557  -3.9315  -3.8689  -3.8594  -3.8558
    -3.7745  -3.7362  -3.6402  -3.6098  -3.4764  -3.3516  -3.3373  -3.2690
    -3.2265  -3.1794  -3.1240  -3.0950  -3.0340  -2.9976  -2.9699  -2.9110
    -2.9021  -2.8688  -2.7388  -2.6660  -2.6026  -2.5843  -2.5575  -2.5165
    -2.5027  -2.4755  -2.4674  -2.4413  -2.4081  -2.3793  -2.3156  -2.2783
    -2.2127  -2.1742  -2.1306  -2.0999  -2.0165  -1.9024  -1.8553  -1.6748
    -1.6426  -1.5888  -1.5508  -1.4770  -1.4593  -1.4368  -1.2649  -1.2095
    -1.1058  -0.8810  -0.7293  -0.6394  -0.6148  -0.5360  -0.4530  -0.4342

     the Fermi energy is    -5.1114 ev

!    total energy              =   -3886.48163155 Ry
     total all-electron energy =    -18798.005420 Ry
     estimated scf accuracy    <       0.00003001 Ry
     smearing contrib. (-TS)   =      -0.01141297 Ry
     internal energy E=F+TS    =   -3886.47021858 Ry

     The total energy is F=E-TS. E is the sum of the following terms:
     one-electron contribution =  -46303.19564316 Ry
     hartree contribution      =   23241.91751805 Ry
     xc contribution           =    -923.18622846 Ry
     ewald contribution        =   21499.07990040 Ry
     DFT-D3 Dispersion         =      -0.42669806 Ry
     one-center paw contrib.   =   -1400.65906736 Ry

     convergence has been achieved in   9 iterations

     negative rho (up, down):  5.313E-02 0.000E+00

     Forces acting on atoms (cartesian axes, Ry/au):

     atom    1 type  1   force =     0.00005476    0.00026658    0.00015064
     atom    2 type  1   force =    -0.00036064    0.00046953    0.00004659
     atom    3 type  1   force =    -0.27515418    0.13874494    0.00883515
     atom    4 type  1   force =    -0.31390344   -0.02342484    0.01073520
     atom    5 type  1   force =    -0.23283255   -0.20966403    0.00204719
     atom    6 type  1   force =    -0.03321871   -0.30784175    0.00053415
     atom    7 type  1   force =     0.16083463   -0.26662379   -0.00041153
     atom    8 type  1   force =     0.26816787   -0.16051853   -0.00072967
     atom    9 type  1   force =     0.31024100   -0.03482937    0.00049919
     atom   10 type  1   force =     0.29612829    0.10005801    0.00131668
     atom   11 type  1   force =     0.20875357    0.23477057   -0.00439364
     atom   12 type  1   force =     0.03948728    0.30518606   -0.00208597
     atom   13 type  1   force =    -0.08549658    0.28975254    0.00889292
     atom   14 type  1   force =    -0.11748083    0.29125977    0.00908478
     atom   15 type  1   force =    -0.14747675    0.31930696   -0.02003103
     atom   16 type  1   force =     0.00108035   -0.00063655    0.00065745
     atom   17 type  1   force =    -0.01582417    0.01750920    0.00031849
     atom   18 type  1   force =     0.00002569    0.00013017    0.00023605
     atom   19 type  1   force =     0.30127073   -0.15377841   -0.01694429
     atom   20 type  1   force =     0.32213386    0.03955185   -0.00145294
     atom   21 type  1   force =     0.22116920    0.22116529    0.00088368
     atom   22 type  1   force =     0.01770546    0.30869449    0.00134762
     atom   23 type  1   force =    -0.17286685    0.25967907   -0.00073365
     atom   24 type  1   force =    -0.27515780    0.15028258   -0.00085513
     atom   25 type  1   force =    -0.31130979    0.02346895    0.00148498
     atom   26 type  1   force =    -0.29015927   -0.10952115    0.00289393
     atom   27 type  1   force =    -0.19606078   -0.24115007   -0.00322130
     atom   28 type  1   force =    -0.02409712   -0.31748076   -0.00987242
     atom   29 type  1   force =     0.09461183   -0.29706478    0.00447925
     atom   30 type  1   force =     0.11529579   -0.28454826    0.01606567
     atom   31 type  1   force =     0.13405089   -0.29132171    0.00076948
     atom   32 type  1   force =    -0.00085512    0.00047877    0.00040749
     atom   33 type  1   force =    -0.00009793   -0.00009526   -0.00036782
     atom   34 type  1   force =     0.00052919   -0.00031226   -0.00039590
     atom   35 type  1   force =    -0.00057098   -0.00006025    0.00030954
     atom   36 type  1   force =    -0.00025674   -0.00006894   -0.00035915
     atom   37 type  1   force =     0.00027439   -0.00000343   -0.00009265
     atom   38 type  1   force =    -0.00001708    0.00003529    0.00003680
     atom   39 type  1   force =     0.00003370   -0.00006684    0.00002937
     atom   40 type  1   force =     0.00018311   -0.00001741   -0.00002265
     atom   41 type  1   force =    -0.00002712    0.00001560   -0.00000166
     atom   42 type  1   force =     0.00013353    0.00001461    0.00001634
     atom   43 type  1   force =    -0.00005900    0.00003393   -0.00004542
     atom   44 type  1   force =     0.00013223   -0.00002769    0.00002675
     atom   45 type  1   force =    -0.00004352   -0.00079018   -0.00006491
     atom   46 type  1   force =    -0.00012011   -0.00029171   -0.00039678
     atom   47 type  1   force =     0.00100020    0.00029763   -0.00129842
     atom   48 type  1   force =    -0.00149944    0.00296670    0.00115428
     atom   49 type  1   force =    -0.00004095    0.00016514   -0.00023498
     atom   50 type  1   force =     0.00015681   -0.00031243   -0.00014529
     atom   51 type  1   force =    -0.00022046   -0.00033854   -0.00040563
     atom   52 type  1   force =     0.00030387   -0.00042218   -0.00016537
     atom   53 type  1   force =     0.00011539   -0.00023749   -0.00017804
     atom   54 type  1   force =     0.00008731    0.00004901   -0.00011287
     atom   55 type  1   force =    -0.00005038    0.00010717    0.00000322
     atom   56 type  1   force =    -0.00008633    0.00003313    0.00001413
     atom   57 type  1   force =    -0.00013406   -0.00003049   -0.00002697
     atom   58 type  1   force =     0.00012863   -0.00006298    0.00009983
     atom   59 type  1   force =    -0.00013643   -0.00012019   -0.00008624
     atom   60 type  1   force =     0.00009051    0.00015260    0.00012001
     atom   61 type  1   force =     0.00025691    0.00026629   -0.00047807
     atom   62 type  1   force =     0.00014459    0.00044508    0.00034259
     atom   63 type  1   force =    -0.00139327    0.00004391    0.00080117
     atom   64 type  1   force =     0.00135759   -0.00321540   -0.00175205
     atom   65 type  1   force =     0.00002541   -0.00007123    0.00008510
     atom   66 type  1   force =    -0.00005691   -0.00011222   -0.00043337
     atom   67 type  1   force =    -0.00046080    0.00099255   -0.00013448
     atom   68 type  1   force =     0.00026353   -0.00057795    0.00019455
     atom   69 type  1   force =    -0.00021570    0.00013553   -0.00050074
     atom   70 type  1   force =    -0.00005548    0.00000658   -0.00016937
     atom   71 type  1   force =     0.00000355    0.00007189   -0.00016435
     atom   72 type  1   force =     0.00006867    0.00003301   -0.00017677
     atom   73 type  1   force =    -0.00000447    0.00001906   -0.00010147
     atom   74 type  1   force =    -0.00004392   -0.00001149   -0.00017067
     atom   75 type  1   force =     0.00019989    0.00007517   -0.00005176
     atom   76 type  1   force =     0.00003285   -0.00016966   -0.00003973
     atom   77 type  1   force =    -0.00004580   -0.00013271   -0.00006569
     atom   78 type  1   force =     0.00026909    0.00028731   -0.00048897
     atom   79 type  1   force =     0.00022657   -0.00031070   -0.00106264
     atom   80 type  1   force =     0.00069834   -0.00004270   -0.00103138
     atom   81 type  1   force =    -0.00007931   -0.00000956    0.00006278
     atom   82 type  1   force =    -0.00010700    0.00048344   -0.00028087
     atom   83 type  1   force =    -0.00011026   -0.00084889   -0.00067284
     atom   84 type  1   force =    -0.00021741    0.00021940   -0.00071996
     atom   85 type  1   force =    -0.00032013   -0.00003191   -0.00026701
     atom   86 type  1   force =    -0.00005884   -0.00003021   -0.00024017
     atom   87 type  1   force =     0.00001807    0.00003209   -0.00014452
     atom   88 type  1   force =     0.00004381    0.00005682   -0.00012535
     atom   89 type  1   force =    -0.00003497    0.00002157   -0.00009247
     atom   90 type  1   force =    -0.00005270   -0.00009007   -0.00012815
     atom   91 type  1   force =     0.00009579    0.00008852   -0.00010553
     atom   92 type  1   force =    -0.00011579   -0.00020353   -0.00035887
     atom   93 type  1   force =    -0.00048719    0.00017582   -0.00008995
     atom   94 type  1   force =    -0.00012755    0.00002030    0.00044302
     atom   95 type  1   force =    -0.00020863    0.00013175   -0.00100857
     atom   96 type  1   force =     0.00002782    0.00003307    0.00066789
     atom   97 type  1   force =     0.00008600    0.00000611   -0.00046048
     atom   98 type  1   force =     0.00010301    0.00024288    0.00029953
     atom   99 type  1   force =     0.00012054   -0.00059269    0.00053974
     atom  100 type  1   force =     0.00014182   -0.00082520    0.00018675
     atom  101 type  1   force =     0.00019542   -0.00016639    0.00018455
     atom  102 type  1   force =     0.00005795    0.00012954    0.00015627
     atom  103 type  1   force =     0.00000346    0.00006190    0.00000153
     atom  104 type  1   force =     0.00018616   -0.00001010   -0.00005610
     atom  105 type  1   force =    -0.00005756    0.00003630   -0.00002467
     atom  106 type  1   force =     0.00012658    0.00002172   -0.00003294
     atom  107 type  1   force =     0.00010528    0.00018048    0.00008643
     atom  108 type  1   force =     0.00000320   -0.00015460    0.00004916
     atom  109 type  1   force =    -0.00005310    0.00078500   -0.00016391
     atom  110 type  1   force =     0.00047642   -0.00037302    0.00023160
     atom  111 type  1   force =    -0.00135124    0.00008373    0.00086257
     atom  112 type  1   force =     0.00057385   -0.00028948   -0.00069877
     atom  113 type  1   force =     0.00001696   -0.00025965    0.00031648
     atom  114 type  1   force =    -0.00050123   -0.00023017   -0.00015858
     atom  115 type  1   force =    -0.00008403   -0.00065291    0.00026700
     atom  116 type  1   force =    -0.00002334    0.00012456   -0.00000562
     atom  117 type  1   force =     0.00013492    0.00030337   -0.00004230
     atom  118 type  1   force =     0.00004985   -0.00005242   -0.00004184
     atom  119 type  1   force =     0.00003770    0.00000801    0.00003534
     atom  120 type  1   force =    -0.00019901    0.00009705   -0.00003565
     atom  121 type  1   force =    -0.00009479    0.00001299    0.00000148
     atom  122 type  1   force =    -0.00005423   -0.00002290   -0.00004600
     atom  123 type  1   force =    -0.00008014   -0.00008514   -0.00005133
     atom  124 type  1   force =     0.00006457    0.00017099    0.00013885
     atom  125 type  1   force =     0.00076498   -0.00006158   -0.00002777
     atom  126 type  1   force =    -0.00079861    0.00047665    0.00119195
     atom  127 type  1   force =     0.00067662   -0.00033603    0.00009371
     atom  128 type  1   force =    -0.00061516    0.00077936    0.00262791
     atom  129 type  1   force =    -0.00004831   -0.00018065    0.00003688
     atom  130 type  1   force =    -0.00004133    0.00004141    0.00015110
     atom  131 type  1   force =     0.00044779   -0.00098524   -0.00046560
     atom  132 type  1   force =     0.00003651    0.00102438   -0.00096222
     atom  133 type  1   force =     0.00025016    0.00008811   -0.00009454
     atom  134 type  1   force =    -0.00020403   -0.00014991    0.00010667
     atom  135 type  1   force =    -0.00005329    0.00019820    0.00001519
     atom  136 type  1   force =    -0.00013522    0.00014337    0.00004323
     atom  137 type  1   force =     0.00009325   -0.00004255   -0.00000991
     atom  138 type  1   force =    -0.00009325   -0.00005093   -0.00000760
     atom  139 type  1   force =     0.00005978   -0.00007125   -0.00005136
     atom  140 type  1   force =    -0.00000100    0.00033204    0.00006581
     atom  141 type  1   force =    -0.00009091    0.00010740   -0.00003784
     atom  142 type  1   force =    -0.00025129    0.00024875   -0.00013956
     atom  143 type  1   force =     0.00054889    0.00031457    0.00078647
     atom  144 type  1   force =     0.00035908   -0.00166990   -0.00036029
     atom  145 type  1   force =    -0.00023993   -0.00016828   -0.00006771
     atom  146 type  1   force =    -0.00035393    0.00024528    0.00002098
     atom  147 type  1   force =     0.00059726    0.00058907   -0.00021702
     atom  148 type  1   force =    -0.00054436   -0.00079178   -0.00007888
     atom  149 type  1   force =     0.00032483   -0.00014528    0.00028355
     atom  150 type  1   force =     0.00006621   -0.00041917   -0.00003334
     atom  151 type  1   force =     0.00009245   -0.00003397   -0.00004451
     atom  152 type  1   force =    -0.00017248    0.00013318    0.00004113
     atom  153 type  1   force =     0.00012860   -0.00000195   -0.00000454
     atom  154 type  1   force =    -0.00002617   -0.00007269    0.00008107
     atom  155 type  1   force =     0.00001124   -0.00009555   -0.00006792
     atom  156 type  1   force =     0.00009528    0.00043788   -0.00001381
     atom  157 type  1   force =    -0.00001307   -0.00064580   -0.00018026
     atom  158 type  1   force =     0.00036421   -0.00070712   -0.00055550
     atom  159 type  1   force =     0.00002256    0.00129650    0.00103304
     atom  160 type  1   force =    -0.00103167    0.00088495    0.00031763
     atom  161 type  1   force =     0.00019582    0.00005084   -0.00008930
     atom  162 type  1   force =     0.00002542   -0.00017232   -0.00071191
     atom  163 type  1   force =     0.00068145   -0.00019633   -0.00009455
     atom  164 type  1   force =    -0.00070285    0.00002160   -0.00007225
     atom  165 type  1   force =    -0.00090386   -0.00170301    0.00000541
     atom  166 type  1   force =    -0.00028694    0.00095528   -0.00007926
     atom  167 type  1   force =    -0.00059944    0.00063155   -0.00000511
     atom  168 type  1   force =     0.00053667   -0.00017198    0.00005345
     atom  169 type  1   force =    -0.00053723   -0.00007708   -0.00004492
     atom  170 type  1   force =     0.00032596    0.00005820    0.00004306
     atom  171 type  1   force =     0.00023967    0.00039954   -0.00010310
     atom  172 type  1   force =     0.00032672   -0.00203072   -0.00013072
     atom  173 type  1   force =    -0.00076212    0.00174131   -0.00005092
     atom  174 type  1   force =     0.00049971   -0.00142151    0.00048133
     atom  175 type  1   force =     0.00260675    0.00002909   -0.00158577
     atom  176 type  1   force =     0.00009691   -0.00018988    0.00084558
     atom  177 type  1   force =    -0.00001680    0.00004134    0.00026516
     atom  178 type  1   force =    -0.00036088    0.00002961    0.00081149
     atom  179 type  1   force =    -0.00116085    0.00032487    0.00013283
     atom  180 type  1   force =     0.00097671   -0.00002406   -0.00003839
     atom  181 type  1   force =     0.00068753    0.00166515   -0.00001756
     atom  182 type  1   force =     0.00022980   -0.00090876   -0.00003820
     atom  183 type  1   force =     0.00053884   -0.00047024    0.00003084
     atom  184 type  1   force =    -0.00054562    0.00021727   -0.00006820
     atom  185 type  1   force =     0.00040758    0.00002854    0.00001440
     atom  186 type  1   force =    -0.00011999   -0.00016467   -0.00003993
     atom  187 type  1   force =    -0.00007738   -0.00055285   -0.00004874
     atom  188 type  1   force =    -0.00034015    0.00201222    0.00007593
     atom  189 type  1   force =     0.00098133   -0.00144653    0.00048029
     atom  190 type  1   force =    -0.00063096    0.00135875   -0.00035885
     atom  191 type  1   force =     0.00041667   -0.00056731    0.00016919
     atom  192 type  1   force =     0.00121536    0.00062559   -0.00312923
     atom  193 type  2   force =     0.00108360    0.00511117    0.00488429
     atom  194 type  3   force =    -0.00037386   -0.00109701   -0.00110324
     atom  195 type  3   force =    -0.00191261   -0.00387640   -0.00225515
     atom  196 type  3   force =    -0.00121633    0.00005928   -0.00220714
     atom  197 type  3   force =     0.00016339   -0.00031681   -0.00094194

     Total force =     0.015210     Total SCF correction =     0.008475
     SCF correction compared to forces is large: reduce conv_thr to get better values
     Energy error            =      1.6E-06 Ry
     Gradient error          =      5.1E-03 Ry/Bohr

     number of scf cycles    =   3
     number of bfgs steps    =   1

     energy             old  =   -3886.4816299644 Ry
     energy             new  =   -3886.4816315510 Ry

     CASE: energy            _new < energy            _old


     WARNING: unexpected behaviour in update_inverse_hessian
              resetting bfgs history

     small trust_radius: resetting bfgs history

     new trust radius        =       0.0001000000 bohr
     new conv_thr            =       0.0000010000 Ry


ATOMIC_POSITIONS (angstrom)
C               30.8343013672       21.9234760123        0.9375977938
C               30.0194691189       25.6613365042        7.1542973173
C               27.2324084417       28.8769231601        0.0179695737    0   0   0
C               23.1842920721       30.0662509373        0.0171169542    0   0   0
C               19.1661798195       28.8015785909        0.0139660156    0   0   0
C               16.9078558270       25.2726117551        0.0131251452    0   0   0
C               17.5109722178       21.1124548595        0.0121721040    0   0   0
C               20.3619411575       17.9823600709        0.0118061334    0   0   0
C               24.3091265243       16.4190661989        0.0108451698    0   0   0
C               28.5500075909       16.6238126688        0.0093827525    0   0   0
C               32.2478668190       18.6804381467        0.0086398353    0   0   0
C               34.2723701106       22.3703930714        0.0069866670    0   0   0
C               33.9954114585       26.5929906427        0.0065072083    0   0   0
C               32.5577418032       30.6105005714        0.0053494007    0   0   0
C               30.9410803883       34.5580950653        0.0088053561    0   0   0
C               28.8472487895       38.7679172127        7.0810522659
C               30.7311720896       22.9453981510        0.1998662222    0   0   0
C               29.3875861593       26.7370897918        7.2170403745
C               25.9628771329       29.5200672808        0.0179423026    0   0   0
C               21.7646280812       29.9321529434        0.0156112086    0   0   0
C               18.1315169709       27.8219232482        0.0137042636    0   0   0
C               16.7912570834       23.8528728864        0.0124334577    0   0   0
C               18.2747815938       19.9096888172        0.0121896666    0   0   0
C               21.5985924225       17.2753149142        0.0114852923    0   0   0
C               25.7275810495       16.2853839619        0.0102933055    0   0   0
C               29.8912357576       17.1031404051        0.0089989290    0   0   0
C               33.1709849467       19.7642198148        0.0083183218    0   0   0
C               34.4102476460       23.7862434732        0.0065638659    0   0   0
C               33.5721785028       27.9511568862        0.0060836325    0   0   0
C               32.0253120384       31.9302958858        0.0051827615    0   0   0
C               30.3486144465       35.8529941478        0.0114293296    0   0   0
C               28.1808441263       39.8383482938        7.0158942318
C               30.7258880845       24.2023248817        0.9804096678
C               29.0307941779       27.5076023612        1.2473713724
C               25.3215045426       29.8412543098        1.1963678087
C               21.0420855912       29.8191645182        1.1896622290
C               17.6365892856       27.2766024585        1.1851408147
C               16.7854021561       23.1173961349        1.1846509413
C               18.6737963574       19.2910097631        1.1820325685
C               22.2254680222       16.8930423151        1.1823472382
C               26.4564936165       16.2059773891        1.1833417008
C               30.5808521814       17.3588657687        1.1814316313
C               33.6819172984       20.3129195417        1.1675353037
C               34.5077820364       24.5044995811        1.1769765939
C               33.3744613318       28.6398860964        1.1934418234
C               31.7755738713       32.6220895133        1.1908516253
C               29.9772457024       36.6253104302        1.0991691674
C               28.1611216852       39.7994303073        0.8190349358
C               30.3831261623       25.5449977376        1.1383133756
C               27.9310771701       28.3636219737        1.1010854122
C               23.9289145126       30.1101304335        1.1892082129
C               19.7393741142       29.2622689199        1.1867693997
C               17.0246364182       25.9980442875        1.1858209964
C               17.1431203319       21.7466227435        1.1848703113
C               19.7112357390       18.3276262511        1.1816046355
C               23.5756562067       16.4685344551        1.1821922139
C               27.8616474987       16.3785243605        1.1839669327
C               31.7608008663       18.1411134316        1.1819502425
C               34.2383851141       21.6177476495        1.1630427978
C               34.2857081953       25.9017324844        1.1744270256
C               32.8519393591       29.9519957432        1.1930683693
C               31.2481874641       33.9280926851        1.1979657395
C               29.3172965260       37.8650378451        1.1536386466
C               28.7180820640       38.8410220634        0.2487794468
C               31.1350424774       22.1764859211        2.3353912299
C               30.4381069314       26.1454341079        2.4221114496
C               27.3205949750       28.9016546982        2.3967942865
C               23.1837143851       30.1409274327        2.4232662271
C               19.1085122839       28.8586470629        2.4199844309
C               16.8304455600       25.2752943265        2.4194174477
C               17.4249358550       21.0518460819        2.4165756416
C               20.2861531273       17.8494340560        2.4130857237
C               24.2960079279       16.2780899825        2.4149934907
C               28.5937019981       16.5225339832        2.4170563799
C               32.3601409154       18.6053908794        2.4071994788
C               34.4794917504       22.3265688129        2.3938016047
C               34.1520142055       26.6156587975        2.4160577435
C               32.5915638201       30.6438902840        2.4330818133
C               30.9525844774       34.6538964985        2.4053148842
C               29.0371416806       38.4426164837        2.4237862315
C               31.1947583306       23.6369203989        2.2523119723
C               29.5829367433       27.2518556083        2.4855296958
C               26.0508110991       29.5639430232        2.4080496171
C               21.7691105346       30.0061760068        2.4224235919
C               18.0758785625       27.8830729085        2.4187416342
C               16.7123540125       23.8592282443        2.4191189806
C               18.1725040308       19.8429895086        2.4153086793
C               21.5201126839       17.1439890047        2.4134380072
C               25.7115615237       16.1524893235        2.4158667846
C               29.9298987658       17.0061659576        2.4161647490
C               33.3123391193       19.6634620793        2.3994532592
C               34.6128062137       23.7440844133        2.3987055751
C               33.6905225163       27.9573037783        2.4245860888
C               32.0561369956       31.9556626746        2.4324784632
C               30.3597685960       35.9518246374        2.3793631750
C               28.2786154962       39.7048580233        2.2713305737
C               31.2834263270       24.2121795990        3.5009510330
C               29.0820599758       27.7619325402        3.7103045850
C               25.3474373783       29.8107063937        3.6470249089
C               21.0420388706       29.8477767222        3.6499727626
C               17.6248647931       27.2946804837        3.6498965547
C               16.7561610572       23.1169942675        3.6496641949
C               18.6134155979       19.2421931118        3.6442233644
C               22.1785355300       16.7988553519        3.6429002133
C               26.4530233638       16.1230098291        3.6466162323
C               30.6130318518       17.3122070265        3.6434773023
C               33.7507364519       20.2712549114        3.6246179636
C               34.6383268991       24.4752782237        3.6312696049
C               33.4550629154       28.6471623032        3.6605457457
C               31.7787228310       32.6620623406        3.6561250679
C               30.0724834984       36.6010672319        3.6083827789
C               27.9173388861       40.3400894271        3.4331817414
C               30.8191340494       25.5151189500        3.6268773943
C               27.9470615573       28.6008621966        3.6486345975
C               23.9327429975       30.0926858824        3.6484190730
C               19.7187679536       29.2803363244        3.6506205190
C               17.0069376003       25.9943215916        3.6510227450
C               17.1077598493       21.7197101523        3.6484700923
C               19.6592647405       18.2492695077        3.6427073184
C               23.5563127752       16.3718315144        3.6437204786
C               27.8824880459       16.3125195763        3.6474552068
C               31.8201098358       18.1027528627        3.6396102485
C               34.3437978409       21.5884046524        3.6200799025
C               34.3969713244       25.8960502231        3.6382972714
C               32.8970201865       29.9713908440        3.6626681613
C               31.2297637541       33.9917141698        3.6492706463
C               29.4091707965       37.8470168141        3.6199186786
C               27.1689647713       41.4846523468        3.9307248648
C               31.0882238171       21.8863444985        3.6710106395
C               30.3113231958       25.9770734684        4.8654390241
C               27.3346943260       28.9799230172        4.9046978716
C               23.1829016298       30.1669629041        4.8858849983
C               19.0561940419       28.9159108080        4.8857097702
C               16.7608421823       25.2789738228        4.8861495571
C               17.3488752100       20.9991276124        4.8811666527
C               20.2231934704       17.7402156919        4.8747231645
C               24.2822020904       16.1572140629        4.8771583031
C               28.6307775718       16.4362789516        4.8803276974
C               32.4365702287       18.5520597645        4.8686013358
C               34.5981607065       22.2995371865        4.8525895705
C               34.2482235873       26.6222163259        4.8790240012
C               32.6203764735       30.6754432994        4.8965325187
C               30.9350890695       34.6934166235        4.8857890221
C               29.0448902375       38.5053490622        4.8201072048
C               31.1623355488       23.0846008864        4.4939515731
C               29.5116525999       27.1517147114        4.9326251806
C               26.0554195094       29.6027428396        4.8849638837
C               21.7681156999       30.0670849384        4.8831775977
C               18.0250351103       27.9388616000        4.8841149552
C               16.6382743874       23.8633906214        4.8851176511
C               18.0850222702       19.7832759586        4.8787210001
C               21.4550911986       17.0309011109        4.8748722436
C               25.6986774405       16.0393874010        4.8789787199
C               29.9648867565       16.9276446081        4.8790494938
C               33.3839445418       19.6119316547        4.8613922641
C               34.7381011576       23.7129902915        4.8573479501
C               33.7702653324       27.9555491521        4.8907690423
C               32.0724316940       31.9799031771        4.8962730194
C               30.3636235569       35.9934426993        4.8883410784
C               28.3448153308       39.7000781063        4.7035802984
C               30.8437917469       23.7312971605        5.6179538035
C               28.8894153239       27.5803737506        6.1995162668
C               25.2451768697       29.8756553312        5.9865422529
C               20.9146511645       29.8822542394        5.9759848799
C               17.5000385153       27.2449992402        5.9800878798
C               16.6876218908       22.9935355647        5.9811155810
C               18.6010481098       19.0802221119        5.9739713577
C               22.2316692528       16.6405787851        5.9719270197
C               26.5663307913       16.0223528330        5.9771672132
C               30.7570722389       17.2910777082        5.9738797116
C               33.8853824290       20.3261744386        5.9545191775
C               34.7246159549       24.5682378314        5.9648336116
C               33.4658008462       28.7480452077        6.0039476868
C               31.7551370613       32.7684673583        6.0092895422
C               30.0459652599       36.6844934731        6.0637899540
C               27.8270863092       40.4570811057        5.8310086557
C               30.4761328359       25.0292113514        5.9809654024
C               27.9122274257       28.5408582758        6.0876983301
C               24.0287574153       30.1242245463        5.9994742863
C               19.7683094464       29.4041502071        5.9893439179
C               16.9677389746       26.1219671947        5.9845803725
C               16.9867425343       21.7884221551        5.9794218476
C               19.4991834765       18.2228170222        5.9712965443
C               23.4189450226       16.2750813326        5.9723912240
C               27.7966988793       16.1908132948        5.9769226609
C               31.7958478836       17.9723888519        5.9691968781
C               34.3963885995       21.4583811676        5.9524771922
C               34.5086333471       25.7898374226        5.9734952061
C               32.9742566335       29.8877781928        5.9956057588
C               31.2751759018       33.9126604346        5.9916991135
C               29.3665512642       37.8979547348        6.1143182018
C               27.0961082742       41.5422822637        5.1795768310
Al              26.8473241065       33.7070287304        4.7276672463
Cl              27.6979778665       33.6994127226        2.7402900298
Cl              27.0573835134       35.6834493823        5.6314223564
Cl              27.9515438711       32.3040408236        5.9527981052
Cl              24.7460510454       33.2619073703        4.6285798188



     Writing config-only to output data dir ./ns.save/ :
     XML data file
     NEW-OLD atomic charge density approx. for the potential

     Check: negative core charge=   -0.000001

     negative rho (up, down):  5.313E-02 0.000E+00

     total cpu time spent up to now is    29719.4 secs

     Self-consistent Calculation

     iteration #  1     ecut=    45.33 Ry     beta= 0.10
     CG style diagonalization
     ethr =  1.00E-06,  avg # of iterations =  2.1

     negative rho (up, down):  5.313E-02 0.000E+00

     total cpu time spent up to now is    32375.1 secs

     total energy              =   -3886.48118633 Ry
     estimated scf accuracy    <       0.00231336 Ry

     iteration #  2     ecut=    45.33 Ry     beta= 0.10
     CG style diagonalization
     ethr =  2.90E-07,  avg # of iterations =  3.0

     negative rho (up, down):  5.313E-02 0.000E+00

     total cpu time spent up to now is    35072.2 secs

     total energy              =   -3886.48095355 Ry
     estimated scf accuracy    <       0.03288417 Ry

     iteration #  3     ecut=    45.33 Ry     beta= 0.10
     CG style diagonalization
     ethr =  2.90E-07,  avg # of iterations =  3.0

     negative rho (up, down):  5.313E-02 0.000E+00

     total cpu time spent up to now is    37745.2 secs

     total energy              =   -3886.48163655 Ry
     estimated scf accuracy    <       0.00078209 Ry

     iteration #  4     ecut=    45.33 Ry     beta= 0.10
     CG style diagonalization
     ethr =  9.79E-08,  avg # of iterations =  3.0

     negative rho (up, down):  5.313E-02 0.000E+00

     total cpu time spent up to now is    40426.3 secs

     total energy              =   -3886.48164567 Ry
     estimated scf accuracy    <       0.00017254 Ry

     iteration #  5     ecut=    45.33 Ry     beta= 0.10
     CG style diagonalization
     ethr =  2.16E-08,  avg # of iterations =  3.0

     negative rho (up, down):  5.313E-02 0.000E+00

     total cpu time spent up to now is    43119.7 secs

     total energy              =   -3886.48164661 Ry
     estimated scf accuracy    <       0.00020850 Ry

     iteration #  6     ecut=    45.33 Ry     beta= 0.10
     CG style diagonalization
     ethr =  2.16E-08,  avg # of iterations =  3.0

     negative rho (up, down):  5.313E-02 0.000E+00

     total cpu time spent up to now is    45804.7 secs

     total energy              =   -3886.48164914 Ry
     estimated scf accuracy    <       0.00002727 Ry

     iteration #  7     ecut=    45.33 Ry     beta= 0.10
     CG style diagonalization
     ethr =  3.41E-09,  avg # of iterations =  3.0

     negative rho (up, down):  5.313E-02 0.000E+00

     total cpu time spent up to now is    48522.3 secs

     total energy              =   -3886.48164917 Ry
     estimated scf accuracy    <       0.00000619 Ry

     iteration #  8     ecut=    45.33 Ry     beta= 0.10
     CG style diagonalization
     ethr =  7.75E-10,  avg # of iterations =  3.7

     negative rho (up, down):  5.313E-02 0.000E+00

     total cpu time spent up to now is    52021.8 secs

     total energy              =   -3886.48165025 Ry
     estimated scf accuracy    <       0.00000208 Ry

     iteration #  9     ecut=    45.33 Ry     beta= 0.10
     CG style diagonalization
     ethr =  2.61E-10,  avg # of iterations =  3.4

     negative rho (up, down):  5.313E-02 0.000E+00

     total cpu time spent up to now is    55149.0 secs

     total energy              =   -3886.48165044 Ry
     estimated scf accuracy    <       0.00000294 Ry

     iteration # 10     ecut=    45.33 Ry     beta= 0.10
     CG style diagonalization
     ethr =  2.61E-10,  avg # of iterations =  3.0

     negative rho (up, down):  5.313E-02 0.000E+00

     total cpu time spent up to now is    57819.4 secs

     End of self-consistent calculation

          k = 0.0000 0.0000 0.0000 (****** PWs)   bands (ev):

   -23.9619 -23.6636 -23.6568 -23.6339 -23.5700 -23.4980 -23.4345 -23.3471
   -23.2885 -23.1915 -23.0732 -22.9769 -22.8786 -22.7842 -22.6736 -22.5534
   -22.4914 -22.4722 -22.4346 -22.4074 -22.3434 -22.3121 -22.2594 -22.1979
   -22.1299 -22.1092 -22.0164 -21.9862 -21.8997 -21.8565 -21.8072 -21.7686
   -21.5600 -21.4656 -21.4009 -21.3553 -21.2020 -21.1138 -21.0746 -20.9888
   -20.8331 -20.7848 -20.6579 -20.5858 -20.4629 -20.4071 -20.3826 -20.3711
   -20.3210 -20.3123 -20.2721 -20.2274 -20.1885 -20.1225 -20.0649 -20.0183
   -19.9771 -19.9678 -19.8780 -19.7427 -19.6773 -19.6454 -19.6058 -19.5335
   -19.4764 -19.4139 -19.3992 -19.3170 -19.2376 -19.1865 -19.1244 -19.0227
   -18.9246 -18.8516 -18.8011 -18.7984 -18.7678 -18.7049 -18.6101 -18.6008
   -18.4862 -18.4110 -18.3666 -18.3281 -18.2924 -18.2736 -18.2570 -18.2465
   -18.1945 -18.1435 -18.0801 -18.0444 -17.9786 -17.9681 -17.9075 -17.8569
   -17.7907 -17.7518 -17.6739 -17.4724 -17.3818 -17.1822 -17.0587 -17.0042
   -16.8893 -16.7524 -16.6282 -16.4996 -16.4190 -16.3910 -16.3532 -16.3529
   -16.3132 -16.2914 -16.2483 -16.2384 -16.2020 -16.1666 -16.1189 -16.0640
   -16.0211 -15.9732 -15.8691 -15.8302 -15.7983 -15.7040 -15.6643 -15.6490
   -15.6150 -15.5955 -15.5799 -15.5200 -15.4750 -15.4408 -15.3928 -15.3664
   -15.3315 -15.2432 -15.1334 -14.9210 -14.7603 -14.6317 -14.5368 -14.4259
   -14.2964 -14.1719 -14.0939 -14.0851 -14.0690 -14.0279 -13.9767 -13.9380
   -13.9273 -13.9146 -13.8699 -13.8280 -13.7884 -13.7480 -13.6796 -13.6677
   -13.6272 -13.6055 -13.5667 -13.5423 -13.4470 -13.3716 -13.2844 -13.2268
   -13.1663 -13.1337 -13.0544 -12.9622 -12.9307 -12.8799 -12.8249 -12.7938
   -12.7801 -12.7684 -12.7627 -12.7408 -12.7022 -12.6780 -12.6574 -12.6201
   -12.5461 -12.5223 -12.4296 -12.3868 -12.3239 -12.2881 -12.1606 -12.1016
   -12.0684 -12.0439 -11.9803 -11.9553 -11.9456 -11.9247 -11.8437 -11.8051
   -11.7890 -11.7677 -11.7554 -11.7253 -11.6983 -11.6902 -11.6771 -11.6312
   -11.5983 -11.5953 -11.5281 -11.5193 -11.4998 -11.4654 -11.4337 -11.4159
   -11.3866 -11.3684 -11.3627 -11.3323 -11.3240 -11.3196 -11.3128 -11.3030
   -11.2704 -11.2630 -11.2036 -11.1682 -11.1538 -11.1351 -11.0989 -11.0963
   -11.0545 -10.9860 -10.9790 -10.9407 -10.9179 -10.8920 -10.8618 -10.7509
   -10.7053 -10.6679 -10.6531 -10.5709 -10.5604 -10.4963 -10.4713 -10.4379
   -10.4017 -10.3908 -10.3667 -10.3414 -10.3125 -10.3003 -10.2741 -10.2336
   -10.2148 -10.1711 -10.1391 -10.0883 -10.0728 -10.0573 -10.0198  -9.9978
    -9.9415  -9.9102  -9.8796  -9.8270  -9.8045  -9.7826  -9.7229  -9.6990
    -9.6672  -9.6483  -9.5903  -9.5822  -9.5547  -9.5363  -9.5094  -9.4956
[...]
     atom  180 type  1   force =     0.00132573    0.00015010    0.00011651
     atom  181 type  1   force =     0.00100635    0.00251815    0.00021437
     atom  182 type  1   force =     0.00031226   -0.00125403   -0.00017024
     atom  183 type  1   force =     0.00081381   -0.00071079   -0.00005973
     atom  184 type  1   force =    -0.00091093    0.00033351    0.00000372
     atom  185 type  1   force =     0.00048272    0.00004129   -0.00004838
     atom  186 type  1   force =    -0.00027777   -0.00030124    0.00000042
     atom  187 type  1   force =    -0.00017140   -0.00083531    0.00003389
     atom  188 type  1   force =    -0.00042763    0.00247974    0.00000186
     atom  189 type  1   force =     0.00125956   -0.00202491    0.00082388
     atom  190 type  1   force =    -0.00071934    0.00156521   -0.00051884
     atom  191 type  1   force =     0.00033436   -0.00037957    0.00006525
     atom  192 type  1   force =     0.00120393    0.00082013   -0.00340746
     atom  193 type  2   force =     0.00118017    0.00532822    0.00512977
     atom  194 type  3   force =    -0.00006939   -0.00153729   -0.00243150
     atom  195 type  3   force =    -0.00252755   -0.00486640   -0.00272202
     atom  196 type  3   force =    -0.00126120   -0.00028782   -0.00249979
     atom  197 type  3   force =    -0.00083227   -0.00061491   -0.00129410

     Total force =     0.017762     Total SCF correction =     0.001351
     Energy error            =      1.8E-05 Ry
     Gradient error          =      5.3E-03 Ry/Bohr

     number of scf cycles    =   4
     number of bfgs steps    =   2

     energy             old  =   -3886.4816315510 Ry
     energy             new  =   -3886.4816498307 Ry

     CASE: energy            _new < energy            _old


     WARNING: bfgs curvature condition failed, Theta= 0.069
     new trust radius        =       0.0001500000 bohr
     new conv_thr            =       0.0000010000 Ry


ATOMIC_POSITIONS (angstrom)
C               30.8343020014       21.9234793643        0.9375993397
C               30.0194646237       25.6613430429        7.1542983788
C               27.2324084417       28.8769231601        0.0179695737    0   0   0
C               23.1842920721       30.0662509373        0.0171169542    0   0   0
C               19.1661798195       28.8015785909        0.0139660156    0   0   0
C               16.9078558270       25.2726117551        0.0131251452    0   0   0
C               17.5109722178       21.1124548595        0.0121721040    0   0   0
C               20.3619411575       17.9823600709        0.0118061334    0   0   0
C               24.3091265243       16.4190661989        0.0108451698    0   0   0
C               28.5500075909       16.6238126688        0.0093827525    0   0   0
C               32.2478668190       18.6804381467        0.0086398353    0   0   0
C               34.2723701106       22.3703930714        0.0069866670    0   0   0
C               33.9954114585       26.5929906427        0.0065072083    0   0   0
C               32.5577418032       30.6105005714        0.0053494007    0   0   0
C               30.9410803883       34.5580950653        0.0088053561    0   0   0
C               28.8472607194       38.7679094775        7.0810591604
C               30.7311720896       22.9453981510        0.1998662222    0   0   0
C               29.3875875920       26.7370896878        7.2170434482
C               25.9628771329       29.5200672808        0.0179423026    0   0   0
C               21.7646280812       29.9321529434        0.0156112086    0   0   0
C               18.1315169709       27.8219232482        0.0137042636    0   0   0
C               16.7912570834       23.8528728864        0.0124334577    0   0   0
C               18.2747815938       19.9096888172        0.0121896666    0   0   0
C               21.5985924225       17.2753149142        0.0114852923    0   0   0
C               25.7275810495       16.2853839619        0.0102933055    0   0   0
C               29.8912357576       17.1031404051        0.0089989290    0   0   0
C               33.1709849467       19.7642198148        0.0083183218    0   0   0
C               34.4102476460       23.7862434732        0.0065638659    0   0   0
C               33.5721785028       27.9511568862        0.0060836325    0   0   0
C               32.0253120384       31.9302958858        0.0051827615    0   0   0
C               30.3486144465       35.8529941478        0.0114293296    0   0   0
C               28.1808348130       39.8383531100        7.0158982682
C               30.7258872501       24.2023234565        0.9804054091
C               29.0308004608       27.5075987637        1.2473671052
C               25.3214981943       29.8412534690        1.1963710479
C               21.0420827503       29.8191639571        1.1896580154
C               17.6365924467       27.2766029270        1.1851395661
C               16.7854018300       23.1173968274        1.1846510502
C               18.6737966193       19.2910091830        1.1820326748
C               22.2254698404       16.8930423065        1.1823467898
C               26.4564929318       16.2059775913        1.1833415595
C               30.5808533920       17.3588657878        1.1814317741
C               33.6819165857       20.3129199124        1.1675346893
C               34.5077836044       24.5044991425        1.1769768751
C               33.3744609442       28.6398769066        1.1934408740
C               31.7755726657       32.6220860549        1.1908466828
C               29.9772576579       36.6253122605        1.0991549266
C               28.1611044646       39.7994641380        0.8190486259
C               30.3831256594       25.5450002394        1.1383111415
C               27.9310787953       28.3636188435        1.1010831443
C               23.9289124296       30.1101264865        1.1892032885
C               19.7393775432       29.2622643954        1.1867672174
C               17.0246375322       25.9980415164        1.1858187396
C               17.1431213006       21.7466231040        1.1848688856
C               19.7112353931       18.3276273145        1.1816045082
C               23.5756555842       16.4685348433        1.1821922195
C               27.8616465139       16.3785241891        1.1839665280
C               31.7608026415       18.1411129944        1.1819511665
C               34.2383836167       21.6177465039        1.1630415803
C               34.2857092251       25.9017344248        1.1744282466
C               32.8519419004       29.9519997201        1.1930624793
C               31.2481887746       33.9280984783        1.1979703327
C               29.3172804018       37.8650398924        1.1536480293
C               28.7180978338       38.8409852129        0.2487605120
C               31.1350427128       22.1764856224        2.3353916257
C               30.4381064202       26.1454328940        2.4221059037
C               27.3205886286       28.9016665740        2.3967929869
C               23.1837166989       30.1409209427        2.4232688247
C               19.1085095176       28.8586487119        2.4199793144
C               16.8304446528       25.2752942920        2.4194160391
C               17.4249358414       21.0518465702        2.4165742968
C               20.2861540301       17.8494342666        2.4130842929
C               24.2960078778       16.2780901416        2.4149928660
C               28.5937016930       16.5225337714        2.4170549139
C               32.3601433019       18.6053917316        2.4071993175
C               34.4794922334       22.3265671132        2.3938016045
C               34.1520137120       26.6156572559        2.4160573391
C               32.5915668825       30.6438939362        2.4330766189
C               30.9525869018       34.6538932909        2.4053025676
C               29.0371489905       38.4426167284        2.4237728388
C               31.1947574781       23.6369202348        2.2523127327
C               29.5829357031       27.2518612037        2.4855261362
C               26.0508113757       29.5639327828        2.4080419940
C               21.7691086151       30.0061785584        2.4224158662
C               18.0758749742       27.8830730599        2.4187390337
C               16.7123530075       23.8592284372        2.4191167537
C               18.1725040098       19.8429899389        2.4153075054
C               21.5201131849       17.1439895732        2.4134371787
C               25.7115611500       16.1524895347        2.4158661785
C               29.9298982835       17.0061648847        2.4161637481
C               33.3123401854       19.6634629714        2.3994524387
C               34.6128050235       23.7440820193        2.3987017251
C               33.6905168770       27.9573060987        2.4245852167
C               32.0561358066       31.9556626735        2.4324838697
C               30.3597663295       35.9518259828        2.3793514761
C               28.2786160150       39.7048584331        2.2713389719
C               31.2834272526       24.2121802455        3.5009463217
C               29.0820613475       27.7619354661        3.7103086484
C               25.3474390111       29.8106996845        3.6470318733
C               21.0420408187       29.8477676575        3.6499755695
C               17.6248673576       27.2946794980        3.6498986122
C               16.7561613209       23.1169960974        3.6496660176
C               18.6134154089       19.2421939016        3.6442233691
C               22.1785371143       16.7988554378        3.6428994678
C               26.4530223870       16.1230101648        3.6466159467
C               30.6130329073       17.3122069333        3.6434768996
C               33.7507374435       20.2712565607        3.6246188452
C               34.6383270009       24.4752769431        3.6312702225
C               33.4550624680       28.6471708179        3.6605436464
C               31.7787281214       32.6620581638        3.6561274937
C               30.0724680867       36.6010687410        3.6083922632
C               27.9173462201       40.3400848253        3.4331742698
C               30.8191345437       25.5151154076        3.6268815860
C               27.9470558592       28.6008599592        3.6486339208
C               23.9327413053       30.0926787880        3.6484227479
C               19.7187672194       29.2803376544        3.6506208135
C               17.0069386739       25.9943243508        3.6510223026
C               17.1077602731       21.7197092324        3.6484696658
C               19.6592654066       18.2492693358        3.6427076571
C               23.5563111974       16.3718324086        3.6437200215
C               27.8824874725       16.3125197124        3.6474551789
C               31.8201098323       18.1027529434        3.6396096766
C               34.3437971605       21.5884041905        3.6200791354
C               34.3969720828       25.8960520121        3.6382983983
C               32.8970287199       29.9713906159        3.6626679618
C               31.2297549879       33.9917196196        3.6492846526
C               29.4091786215       37.8470122064        3.6199213159
C               27.1689571765       41.4846622070        3.9307556877
C               31.0882233023       21.8863429302        3.6710110645
C               30.3113235655       25.9770731490        4.8654406097
C               27.3346988542       28.9799126200        4.9046916255
C               23.1829018580       30.1669748208        4.8858732818
C               19.0561965561       28.9159115628        4.8857074155
C               16.7608398126       25.2789721489        4.8861492712
C               17.3488743596       20.9991298895        4.8811674229
C               20.2231920465       17.7402171371        4.8747239395
C               24.2822031328       16.1572136551        4.8771576566
C               28.6307767736       16.4362783375        4.8803276463
C               32.4365711354       18.5520591512        4.8686003427
C               34.5981608485       22.2995411161        4.8525899097
C               34.2482222319       26.6222186295        4.8790241138
C               32.6203733132       30.6754471239        4.8965294721
C               30.9350959269       34.6934186579        4.8857976100
C               29.0448942728       38.5053301528        4.8201040063
C               31.1623329096       23.0845992374        4.4939510785
C               29.5116481229       27.1517184041        4.9326253270
C               26.0554261309       29.6027497308        4.8849608016
C               21.7681094729       30.0670762514        4.8831753121
C               18.0250391347       27.9388601999        4.8841160442
C               16.6382748216       23.8633861715        4.8851174900
C               18.0850232204       19.7832753681        4.8787210315
C               21.4550892577       17.0309026739        4.8748720927
C               25.6986788309       16.0393873507        4.8789786832
C               29.9648864379       16.9276437013        4.8790499749
C               33.3839446195       19.6119305263        4.8613909968
C               34.7381024469       23.7129948854        4.8573486163
C               33.7702653634       27.9555413891        4.8907661753
C               32.0724361564       31.9798942865        4.8962664195
C               30.3636233981       35.9934588754        4.8883537161
C               28.3448037358       39.7000875500        4.7035835191
C               30.8437940118       23.7312979820        5.6179529415
C               28.8894162595       27.5803714521        6.1995082201
C               25.2451854194       29.8756533961        5.9865416956
C               20.9146413895       29.8822538386        5.9759847046
C               17.5000264396       27.2449768819        5.9800892814
C               16.6876181067       22.9935479429        5.9811140617
C               18.6010405493       19.0802301075        5.9739707588
C               22.2316771535       16.6405762721        5.9719280313
C               26.5663247210       16.0223519898        5.9771663746
C               30.7570769340       17.2910789466        5.9738803812
C               33.8853857349       20.3261799579        5.9545185012
C               34.7246198807       24.5682133484        5.9648313195
C               33.4657914086       28.7480670150        6.0039486363
C               31.7551426217       32.7684513644        6.0092953026
C               30.0459942677       36.6844923355        6.0637738030
C               27.8270876100       40.4570784274        5.8310171406
C               30.4761331418       25.0292117713        5.9809676873
C               27.9122239662       28.5408585214        6.0877066975
C               24.0287442303       30.1242287050        5.9994762179
C               19.7683218068       29.4041508200        5.9893442786
C               16.9677480425       26.1219895624        5.9845813461
C               16.9867454441       21.7884105516        5.9794207698
C               19.4991907094       18.2228107073        5.9712964245
C               23.4189372626       16.2750842759        5.9723908443
C               27.7967036833       16.1908136687        5.9769225021
C               31.7958457883       17.9723863778        5.9691966470
C               34.3963872871       21.4583737450        5.9524770776
C               34.5086292135       25.7898616248        5.9734956589
C               32.9742686887       29.8877595782        5.9956127002
C               31.2751686051       33.9126762288        5.9916944128
C               29.3665553766       37.8979495155        6.1143195176
C               27.0961214172       41.5422900350        5.1795414469
Al              26.8473363606       33.7070853339        4.7277215282
Cl              27.6979753343       33.6993985975        2.7402713794
Cl              27.0573596530       35.6834023099        5.6313955188
Cl              27.9515304349       32.3040397250        5.9527726637
Cl              24.7460478218       33.2619024329        4.6285678203



     Writing config-only to output data dir ./ns.save/ :
     XML data file
     NEW-OLD atomic charge density approx. for the potential

     Check: negative core charge=   -0.000001

     negative rho (up, down):  5.313E-02 0.000E+00

     total cpu time spent up to now is    58032.2 secs

     Self-consistent Calculation

     iteration #  1     ecut=    45.33 Ry     beta= 0.10
     CG style diagonalization
     ethr =  1.00E-06,  avg # of iterations =  2.0

     Threshold (ethr) on eigenvalues was too large:
     Diagonalizing with lowered threshold

     CG style diagonalization
     ethr =  3.76E-09,  avg # of iterations = 18.6

     negative rho (up, down):  5.313E-02 0.000E+00

     total cpu time spent up to now is    81590.4 secs

     total energy              =   -3886.48154821 Ry
     estimated scf accuracy    <       0.00068774 Ry

     iteration #  2     ecut=    45.33 Ry     beta= 0.10
     CG style diagonalization

     Maximum CPU time exceeded

     max_seconds     =   84000.00
     elapsed seconds =   84153.66
     Calculation stopped in k-point loop, point #     1
     Calculation stopped in scf loop at iteration #     1

     Writing config to output data dir ./ns.save/ :
     XML data file, charge density distributed wavefunctions
 
     init_run     :     46.39s CPU     56.83s WALL (       1 calls)
     electrons    :  82957.88s CPU  83675.64s WALL (       3 calls)
     update_pot   :     21.24s CPU     22.58s WALL (       2 calls)
     forces       :    276.30s CPU    307.63s WALL (       2 calls)
     force_dftd3  :      0.64s CPU      0.64s WALL (       2 calls)

     Called by init_run:
     wfcinit      :      0.02s CPU      4.27s WALL (       1 calls)
     potinit      :      4.91s CPU      6.14s WALL (       1 calls)
     hinit0       :      6.91s CPU      7.14s WALL (       1 calls)

     Called by electrons:
     c_bands      :  80807.72s CPU  81299.90s WALL (      22 calls)
     sum_band     :   1611.88s CPU   1740.79s WALL (      21 calls)
     v_of_rho     :     73.09s CPU     82.32s WALL (      23 calls)
     newd         :    497.64s CPU    601.06s WALL (      23 calls)
     PAW_pot      :     23.47s CPU     23.52s WALL (      25 calls)
     mix_rho      :     14.39s CPU     15.43s WALL (      21 calls)
     energy_dftd3 :      0.78s CPU      0.78s WALL (       3 calls)

     Called by c_bands:
     init_us_2    :     76.98s CPU     78.00s WALL (      45 calls)
     ccgdiagg     :  78549.98s CPU  78982.71s WALL (      24 calls)
     wfcrot       :   2218.35s CPU   2271.29s WALL (      20 calls)

     Called by *cgdiagg:
     h_psi        :  32088.84s CPU  32407.28s WALL (   30978 calls)
     s_psi        :  27337.17s CPU  27427.36s WALL (   61936 calls)

     Called by h_psi:
     h_psi:calbec :  14187.86s CPU  14234.25s WALL (   30978 calls)
     vloc_psi     :   4032.09s CPU   4259.09s WALL (   30978 calls)
     add_vuspsi   :  13847.17s CPU  13892.07s WALL (   30978 calls)
     hs_1psi      :  43979.24s CPU  44294.90s WALL (   30958 calls)
     s_1psi       :  27448.71s CPU  27539.86s WALL (   30958 calls)

     General routines
     calbec       :  28623.50s CPU  28717.58s WALL (   61967 calls)
     fft          :     62.18s CPU     70.79s WALL (     320 calls)
     ffts         :      3.06s CPU      3.54s WALL (      44 calls)
     fftw         :   3372.84s CPU   3619.50s WALL (   91196 calls)
     interpolate  :      6.32s CPU      7.12s WALL (      23 calls)
     davcio       :      0.00s CPU      5.12s WALL (       4 calls)
 
     Parallel routines
 
     PWSCF        :     23h 9m CPU     23h22m WALL

 
   This run was terminated on:  11:26: 8   2Aug2025            

=------------------------------------------------------------------------------=
   JOB DONE.
=------------------------------------------------------------------------------=
