
     Program PWSCF v.7.2 starts on  7Feb2025 at  2:58:19 

     This program is part of the open-source Quantum ESPRESSO suite
     for quantum simulation of materials; please cite
         "P. Giannozzi et al., J. Phys.:Condens. Matter 21 395502 (2009);
         "P. Giannozzi et al., J. Phys.:Condens. Matter 29 465901 (2017);
         "P. Giannozzi et al., J. Chem. Phys. 152 154105 (2020);
          URL http://www.quantum-espresso.org", 
     in publications or presentations arising from this work. More details at
     http://www.quantum-espresso.org/quote

     Parallel version (MPI), running on    20 processors

     MPI processes distributed on     1 nodes
     254979 MiB available memory on the printing compute node when the environment starts

     Reading input from pw.in
Warning: card &CELL ignored
Warning: card / ignored
Warning: card &FCP ignored
Warning: card / ignored
Warning: card &RISM ignored
Warning: card / ignored

     Current dimensions of program PWSCF are:
     Max number of different atomic species (ntypx) = 10
     Max number of k-points (npk) =  40000
     Max angular momentum in pseudopotentials (lmaxx) =  4
     file O.pbe-n-kjpaw_psl.1.0.0.UPF: wavefunction(s)  2S 2P renormalized
     file H.pbe-kjpaw_psl.1.0.0.UPF: wavefunction(s)  1S renormalized
     file C.pbe-n-kjpaw_psl.1.0.0.UPF: wavefunction(s)  2S 2P renormalized

     R & G space division:  proc/nbgrp/npool/nimage =      20
     Subspace diagonalization in iterative solution of the eigenvalue problem:
     one sub-group per band group will be used
     scalapack distributed-memory algorithm (size of sub-group:  4*  4 procs)


     Parallelization info
     --------------------
     sticks:   dense  smooth     PW     G-vecs:    dense   smooth      PW
     Min        2931    1777    453               533725   251863   32481
     Max        2932    1778    454               533730   251866   32483
     Sum       58625   35549   9061             10674553  5037273  649647

     Using Slab Decomposition



     bravais-lattice index     =            0
     lattice parameter (alat)  =      47.2432  a.u.
     unit-cell volume          =  105442.7265 (a.u.)^3
     number of atoms/cell      =         1302
     number of atomic types    =            3
     number of electrons       =      3288.00
     number of Kohn-Sham states=         1973
     kinetic-energy cutoff     =      50.0000  Ry
     charge density cutoff     =     330.0000  Ry
     scf convergence threshold =      1.0E-06
     mixing beta               =       0.7000
     number of iterations used =            8  plain     mixing
     energy convergence thresh.=      1.0E-04
     force convergence thresh. =      1.0E-03
     Exchange-correlation= SLA  PW   PBX  PBC
                           (   1   4   3   4   0   0   0)
     nstep                     =           50


     celldm(1)=  47.243153  celldm(2)=   0.000000  celldm(3)=   0.000000
     celldm(4)=   0.000000  celldm(5)=   0.000000  celldm(6)=   0.000000

     crystal axes: (cart. coord. in units of alat)
               a(1) = (   1.000000   0.000000   0.000000 )  
               a(2) = (   0.000000   1.000000   0.000000 )  
               a(3) = (   0.000000   0.000000   1.000000 )  

     reciprocal axes: (cart. coord. in units 2 pi/alat)
               b(1) = (  1.000000  0.000000  0.000000 )  
               b(2) = (  0.000000  1.000000  0.000000 )  
               b(3) = (  0.000000  0.000000  1.000000 )  


     PseudoPot. # 1 for O  read from file:
     /home/ebarquero/practicas/p3/pseudo/O.pbe-n-kjpaw_psl.1.0.0.UPF
     MD5 check sum: e99d9cef9b487d1ca56f5b95ecd0fd7a
     Pseudo is Projector augmented-wave + core cor, Zval =  6.0
     Generated using &quot;atomic&quot; code by A. Dal Corso  v.6.3
     Shape of augmentation charge: PSQ
     Using radial grid of 1095 points,  4 beta functions with: 
                l(1) =   0
                l(2) =   0
                l(3) =   1
                l(4) =   1
     Q(r) pseudized with 0 coefficients 


     PseudoPot. # 2 for H  read from file:
     /home/ebarquero/practicas/p3/pseudo/H.pbe-kjpaw_psl.1.0.0.UPF
     MD5 check sum: d81a744832360e4a8af0b0b5b123bc2a
     Pseudo is Projector augmented-wave, Zval =  1.0
     Generated using &quot;atomic&quot; code by A. Dal Corso  v.6.3MaX
     Shape of augmentation charge: PSQ
     Using radial grid of  929 points,  2 beta functions with: 
                l(1) =   0
                l(2) =   0
     Q(r) pseudized with 0 coefficients 


     PseudoPot. # 3 for C  read from file:
     /home/ebarquero/practicas/p3/pseudo/C.pbe-n-kjpaw_psl.1.0.0.UPF
     MD5 check sum: 5f16ad9a65e90284d1d834d4ab3b0f7d
     Pseudo is Projector augmented-wave + core cor, Zval =  4.0
     Generated using &quot;atomic&quot; code by A. Dal Corso  v.6.3
     Shape of augmentation charge: PSQ
     Using radial grid of 1073 points,  4 beta functions with: 
                l(1) =   0
                l(2) =   0
                l(3) =   1
                l(4) =   1
     Q(r) pseudized with 0 coefficients 


     atomic species   valence    mass     pseudopotential
        O              6.00    15.99900     O ( 1.00)
        H              1.00     1.00800     H ( 1.00)
        C              4.00    12.01100     C ( 1.00)

     No symmetry found



   Cartesian axes

     site n.     atom                  positions (alat units)
         1           O   tau(   1) = (   0.6329454   0.7315512   0.5737117  )
         2           H   tau(   2) = (   0.5336639   0.6076552   0.4803161  )
         3           H   tau(   3) = (   0.4296519   0.5377486   0.3499268  )
         4           O   tau(   4) = (   0.6074286   0.1233366   0.6861427  )
         5           H   tau(   5) = (   0.5989190   0.1000399   0.6861145  )
         6           H   tau(   6) = (   0.6318553   0.1276154   0.6861885  )
         7           O   tau(   7) = (   0.7375934   0.8998642   0.7229769  )
         8           H   tau(   8) = (   0.7544816   0.8868370   0.7103188  )
         9           H   tau(   9) = (   0.7192950   0.8881418   0.7349240  )
        10           O   tau(  10) = (   0.7963950   0.2677556   0.7942083  )
        11           H   tau(  11) = (   0.7985303   0.2923115   0.7914523  )
        12           H   tau(  12) = (   0.7739344   0.2573580   0.7957545  )
        13           O   tau(  13) = (   0.4102552   0.7104440   0.7668556  )
        14           H   tau(  14) = (   0.4233492   0.6907175   0.7594688  )
        15           H   tau(  15) = (   0.4218944   0.7314705   0.7729706  )
        16           O   tau(  16) = (   0.3125950   0.8347128   0.4610020  )
        17           H   tau(  17) = (   0.2886033   0.8406548   0.4630615  )
        18           H   tau(  18) = (   0.3299068   0.8524258   0.4622384  )
        19           O   tau(  19) = (   0.4889185   0.1990477   0.6935173  )
        20           H   tau(  20) = (   0.4760070   0.1900032   0.7126651  )
        21           H   tau(  21) = (   0.5052364   0.2173717   0.6971144  )
        22           O   tau(  22) = (   0.5667090   0.1017574   0.4711227  )
        23           H   tau(  23) = (   0.5738492   0.0998575   0.4474466  )
        24           H   tau(  24) = (   0.5797030   0.1157955   0.4869046  )
        25           O   tau(  25) = (   0.7830803   0.3715139   0.8712774  )
        26           H   tau(  26) = (   0.7857231   0.3744180   0.8467880  )
        27           H   tau(  27) = (   0.7645824   0.3829490   0.8831956  )
        28           O   tau(  28) = (   0.4077316   0.1119138   0.8178026  )
        29           H   tau(  29) = (   0.4293090   0.0996926   0.8173506  )
        30           H   tau(  30) = (   0.3867333   0.0998104   0.8230520  )
        31           O   tau(  31) = (   0.5681021   0.2841540   0.1140288  )
        32           H   tau(  32) = (   0.5438277   0.2883976   0.1112188  )
        33           H   tau(  33) = (   0.5845933   0.2975355   0.1012244  )
        34           O   tau(  34) = (   0.6489547   0.6706678   0.7319369  )
        35           H   tau(  35) = (   0.6482569   0.6795008   0.7551024  )
        36           H   tau(  36) = (   0.6506202   0.6862938   0.7127528  )
        37           O   tau(  37) = (   0.5474186   0.2078555   0.7833921  )
        38           H   tau(  38) = (   0.5238946   0.2157092   0.7830890  )
        39           H   tau(  39) = (   0.5622050   0.2122362   0.7639717  )
        40           O   tau(  40) = (   0.2211892   0.6727461   0.7220306  )
        41           H   tau(  41) = (   0.2200124   0.6974933   0.7208727  )
        42           H   tau(  42) = (   0.2007932   0.6595864   0.7271102  )
        43           O   tau(  43) = (   0.3079452   0.7702907   0.5922238  )
        44           H   tau(  44) = (   0.2916836   0.7670570   0.5737778  )
        45           H   tau(  45) = (   0.3303903   0.7796982   0.5874602  )
        46           O   tau(  46) = (   0.7368630   0.1365222   0.7838048  )
        47           H   tau(  47) = (   0.7463843   0.1545604   0.7696940  )
        48           H   tau(  48) = (   0.7518980   0.1218126   0.7969410  )
        49           O   tau(  49) = (   0.3669218   0.2609670   0.6190986  )
        50           H   tau(  50) = (   0.3439317   0.2593504   0.6099340  )
        51           H   tau(  51) = (   0.3863886   0.2614224   0.6037423  )
        52           O   tau(  52) = (   0.3371550   0.1226305   0.5635784  )
        53           H   tau(  53) = (   0.3447892   0.0999683   0.5701582  )
        54           H   tau(  54) = (   0.3145250   0.1257788   0.5539376  )
        55           O   tau(  55) = (   0.0997421   0.3337141   0.6181662  )
        56           H   tau(  56) = (   0.1027306   0.3092903   0.6212808  )
        57           H   tau(  57) = (   0.1194418   0.3481818   0.6139727  )
        58           O   tau(  58) = (   0.5716527   0.7682741   0.1336520  )
        59           H   tau(  59) = (   0.5927782   0.7788710   0.1261306  )
        60           H   tau(  60) = (   0.5511906   0.7820082   0.1364188  )
        61           O   tau(  61) = (   0.2249793   0.3524572   0.5002198  )
        62           H   tau(  62) = (   0.2130024   0.3483540   0.5215475  )
        63           H   tau(  63) = (   0.2272634   0.3755708   0.4915294  )
        64           O   tau(  64) = (   0.1514769   0.6601340   0.3730787  )
        65           H   tau(  65) = (   0.1626508   0.6801824   0.3636790  )
        66           H   tau(  66) = (   0.1630849   0.6462880   0.3900646  )
        67           O   tau(  67) = (   0.5626118   0.6874854   0.7339294  )
        68           H   tau(  68) = (   0.5556798   0.6654072   0.7428540  )
        69           H   tau(  69) = (   0.5557342   0.6943522   0.7111144  )
        70           O   tau(  70) = (   0.2564306   0.3280917   0.8820530  )
        71           H   tau(  71) = (   0.2603365   0.3208951   0.8586413  )
        72           H   tau(  72) = (   0.2332986   0.3296266   0.8908583  )
        73           O   tau(  73) = (   0.1840377   0.7707860   0.8232714  )
        74           H   tau(  74) = (   0.1734537   0.7540621   0.8083235  )
        75           H   tau(  75) = (   0.1726680   0.7923641   0.8277544  )
        76           O   tau(  76) = (   0.4020688   0.7992079   0.2597860  )
        77           H   tau(  77) = (   0.4153367   0.8188728   0.2670252  )
        78           H   tau(  78) = (   0.3778299   0.7980422   0.2648942  )
        79           O   tau(  79) = (   0.4079008   0.2896954   0.4144618  )
        80           H   tau(  80) = (   0.3902207   0.2730824   0.4093071  )
        81           H   tau(  81) = (   0.4019766   0.3135934   0.4174237  )
        82           O   tau(  82) = (   0.3099682   0.5043544   0.8199178  )
        83           H   tau(  83) = (   0.3320245   0.5156847   0.8193753  )
        84           H   tau(  84) = (   0.2892130   0.5177256   0.8222436  )
        85           O   tau(  85) = (   0.7994062   0.7700979   0.3816856  )
        86           H   tau(  86) = (   0.8080716   0.7903102   0.3931540  )
        87           H   tau(  87) = (   0.8098125   0.7624284   0.3605228  )
        88           O   tau(  88) = (   0.8698094   0.5142998   0.4205374  )
        89           H   tau(  89) = (   0.8689937   0.4909806   0.4289458  )
        90           H   tau(  90) = (   0.8489514   0.5256278   0.4133542  )
        91           O   tau(  91) = (   0.1581409   0.2047155   0.8965608  )
        92           H   tau(  92) = (   0.1629924   0.2278596   0.8890803  )
        93           H   tau(  93) = (   0.1767131   0.1886468   0.9000036  )
        94           O   tau(  94) = (   0.6974115   0.2886176   0.1689957  )
        95           H   tau(  95) = (   0.6826097   0.2770618   0.1527932  )
        96           H   tau(  96) = (   0.6896560   0.3092613   0.1803388  )
        97           O   tau(  97) = (   0.8988561   0.5027158   0.5354243  )
        98           H   tau(  98) = (   0.9000024   0.4996741   0.5108360  )
        99           H   tau(  99) = (   0.8898966   0.4845713   0.5497589  )
       100           O   tau( 100) = (   0.1250602   0.6818010   0.5724924  )
       101           H   tau( 101) = (   0.1003584   0.6833127   0.5741303  )
       102           H   tau( 102) = (   0.1360732   0.6596141   0.5712935  )
       103           O   tau( 103) = (   0.6481542   0.5887679   0.3269927  )
       104           H   tau( 104) = (   0.6501470   0.6121127   0.3351289  )
       105           H   tau( 105) = (   0.6435745   0.5704012   0.3430136  )
       106           O   tau( 106) = (   0.2600350   0.4193595   0.7328924  )
       107           H   tau( 107) = (   0.2753833   0.4255518   0.7513649  )
       108           H   tau( 108) = (   0.2691718   0.4103408   0.7116754  )
       109           O   tau( 109) = (   0.7550938   0.7985190   0.6505899  )
       110           H   tau( 110) = (   0.7761204   0.7898571   0.6406902  )
       111           H   tau( 111) = (   0.7502453   0.8228338   0.6500833  )
       112           O   tau( 112) = (   0.4681147   0.4368335   0.4349590  )
       113           H   tau( 113) = (   0.4433946   0.4385253   0.4338614  )
       114           H   tau( 114) = (   0.4819752   0.4573954   0.4346852  )
       115           O   tau( 115) = (   0.0998472   0.5640744   0.3459105  )
       116           H   tau( 116) = (   0.1107792   0.5447658   0.3348281  )
       117           H   tau( 117) = (   0.1135566   0.5829950   0.3542197  )
       118           O   tau( 118) = (   0.5645632   0.4578735   0.8837347  )
       119           H   tau( 119) = (   0.5400978   0.4616889   0.8823073  )
       120           H   tau( 120) = (   0.5736246   0.4348342   0.8822993  )
       121           O   tau( 121) = (   0.5821573   0.4495651   0.4719060  )
       122           H   tau( 122) = (   0.6000040   0.4331470   0.4667010  )
       123           H   tau( 123) = (   0.5678821   0.4585439   0.4537242  )
       124           O   tau( 124) = (   0.3006696   0.7266623   0.2515014  )
       125           H   tau( 125) = (   0.2760689   0.7289315   0.2536939  )
       126           H   tau( 126) = (   0.3109196   0.7041680   0.2495204  )
       127           O   tau( 127) = (   0.7680176   0.4421459   0.6219554  )
       128           H   tau( 128) = (   0.7827314   0.4403640   0.6418421  )
       129           H   tau( 129) = (   0.7442106   0.4353768   0.6234984  )
       130           O   tau( 130) = (   0.7454470   0.7045771   0.8580744  )
       131           H   tau( 131) = (   0.7521230   0.6807384   0.8565578  )
       132           H   tau( 132) = (   0.7565157   0.7214918   0.8437093  )
       133           O   tau( 133) = (   0.1766732   0.4946417   0.8693708  )
       134           H   tau( 134) = (   0.1991554   0.4981738   0.8792313  )
       135           H   tau( 135) = (   0.1612574   0.5138459   0.8664508  )
       136           O   tau( 136) = (   0.1983882   0.2774002   0.7413931  )
       137           H   tau( 137) = (   0.1895083   0.2815035   0.7186014  )
       138           H   tau( 138) = (   0.2171481   0.2911170   0.7500473  )
       139           O   tau( 139) = (   0.2667571   0.7763896   0.1801934  )
       140           H   tau( 140) = (   0.2697911   0.7573641   0.1645737  )
       141           H   tau( 141) = (   0.2841430   0.7939991   0.1818109  )
       142           O   tau( 142) = (   0.3241812   0.3590123   0.6342217  )
       143           H   tau( 143) = (   0.3364158   0.3399790   0.6443802  )
       144           H   tau( 144) = (   0.3021346   0.3658408   0.6432935  )
       145           O   tau( 145) = (   0.6615273   0.6908808   0.2947475  )
       146           H   tau( 146) = (   0.6557558   0.7148530   0.2920696  )
       147           H   tau( 147) = (   0.6850780   0.6841560   0.2986356  )
       148           O   tau( 148) = (   0.5339786   0.6688092   0.3905301  )
       149           H   tau( 149) = (   0.5111973   0.6784344   0.3924061  )
       150           H   tau( 150) = (   0.5530031   0.6832044   0.3837606  )
       151           O   tau( 151) = (   0.4576130   0.3548756   0.7188422  )
       152           H   tau( 152) = (   0.4342464   0.3598092   0.7121481  )
       153           H   tau( 153) = (   0.4729978   0.3734089   0.7247414  )
       154           O   tau( 154) = (   0.7102752   0.9000514   0.3398509  )
       155           H   tau( 155) = (   0.6860551   0.8949428   0.3382898  )
       156           H   tau( 156) = (   0.7269766   0.8834399   0.3320984  )
       157           O   tau( 157) = (   0.8995255   0.7909688   0.9000306  )
       158           H   tau( 158) = (   0.8828469   0.7781631   0.8868780  )
       159           H   tau( 159) = (   0.9000142   0.8157264   0.8986890  )
       160           O   tau( 160) = (   0.3692740   0.1129958   0.4775047  )
       161           H   tau( 161) = (   0.3646573   0.0996892   0.4570897  )
       162           H   tau( 162) = (   0.3603904   0.1360586   0.4795458  )
       163           O   tau( 163) = (   0.3981137   0.6813285   0.2151898  )
       164           H   tau( 164) = (   0.3841062   0.6627020   0.2236748  )
       165           H   tau( 165) = (   0.3873942   0.7017567   0.2060924  )
       166           O   tau( 166) = (   0.4897116   0.6399744   0.6904277  )
       167           H   tau( 167) = (   0.4827359   0.6167534   0.6956508  )
       168           H   tau( 168) = (   0.4743507   0.6588792   0.6950784  )
       169           O   tau( 169) = (   0.5376682   0.8861660   0.4467542  )
       170           H   tau( 170) = (   0.5592071   0.8981541   0.4494949  )
       171           H   tau( 171) = (   0.5167832   0.8989396   0.4428008  )
       172           O   tau( 172) = (   0.3015264   0.6105067   0.8993722  )
       173           H   tau( 173) = (   0.3217373   0.6246539   0.8968178  )
       174           H   tau( 174) = (   0.2982227   0.5908287   0.8846468  )
       175           O   tau( 175) = (   0.3253382   0.3535095   0.7586508  )
       176           H   tau( 176) = (   0.3173850   0.3317129   0.7674147  )
       177           H   tau( 177) = (   0.3335648   0.3552368   0.7353202  )
       178           O   tau( 178) = (   0.4238381   0.8521368   0.3480230  )
       179           H   tau( 179) = (   0.3997443   0.8470237   0.3509370  )
       180           H   tau( 180) = (   0.4314197   0.8757000   0.3465152  )
       181           O   tau( 181) = (   0.4001262   0.8992103   0.5275233  )
       182           H   tau( 182) = (   0.3909186   0.8772597   0.5205562  )
       183           H   tau( 183) = (   0.4170028   0.9003867   0.5456554  )
       184           O   tau( 184) = (   0.7504585   0.7310377   0.4635958  )
       185           H   tau( 185) = (   0.7481083   0.7544165   0.4556549  )
       186           H   tau( 186) = (   0.7607161   0.7139153   0.4488790  )
       187           O   tau( 187) = (   0.1997676   0.2988509   0.4115403  )
       188           H   tau( 188) = (   0.2145811   0.2926964   0.3926238  )
       189           H   tau( 189) = (   0.2002760   0.2856122   0.4325035  )
       190           O   tau( 190) = (   0.7197593   0.7823356   0.1467692  )
       191           H   tau( 191) = (   0.7292880   0.7691984   0.1655247  )
       192           H   tau( 192) = (   0.7235325   0.7750654   0.1233623  )
       193           O   tau( 193) = (   0.5736654   0.9000015   0.3580744  )
       194           H   tau( 194) = (   0.5856634   0.8790585   0.3523657  )
       195           H   tau( 195) = (   0.5489930   0.8998712   0.3605710  )
       196           O   tau( 196) = (   0.7100636   0.7525996   0.7158943  )
       197           H   tau( 197) = (   0.7260529   0.7548758   0.7347174  )
       198           H   tau( 198) = (   0.6955555   0.7716917   0.7095709  )
       199           O   tau( 199) = (   0.7113451   0.3594492   0.2817892  )
       200           H   tau( 200) = (   0.6883487   0.3611129   0.2726489  )
       201           H   tau( 201) = (   0.7218475   0.3372097   0.2849648  )
       202           O   tau( 202) = (   0.2850936   0.5730106   0.2388204  )
       203           H   tau( 203) = (   0.2644208   0.5601613   0.2435824  )
       204           H   tau( 204) = (   0.2837334   0.5947200   0.2269111  )
       205           O   tau( 205) = (   0.6038113   0.1030874   0.5953750  )
       206           H   tau( 206) = (   0.6272574   0.0998920   0.6028059  )
       207           H   tau( 207) = (   0.5978098   0.0998506   0.5715321  )
       208           O   tau( 208) = (   0.6014596   0.3056194   0.7316552  )
       209           H   tau( 209) = (   0.6162502   0.2857124   0.7319696  )
       210           H   tau( 210) = (   0.5768255   0.3027662   0.7316810  )
       211           O   tau( 211) = (   0.8852252   0.3749503   0.8748141  )
       212           H   tau( 212) = (   0.8784157   0.3741667   0.8509778  )
       213           H   tau( 213) = (   0.8684218   0.3711095   0.8926430  )
       214           O   tau( 214) = (   0.2095969   0.3690423   0.6301746  )
       215           H   tau( 215) = (   0.2072608   0.3472176   0.6417235  )
       216           H   tau( 216) = (   0.2040604   0.3709761   0.6060793  )
       217           O   tau( 217) = (   0.7432283   0.8784505   0.4185291  )
       218           H   tau( 218) = (   0.7570339   0.8967599   0.4279799  )
       219           H   tau( 219) = (   0.7539095   0.8571581   0.4116353  )
       220           O   tau( 220) = (   0.6623503   0.5846061   0.7799131  )
       221           H   tau( 221) = (   0.6454812   0.5813682   0.7620218  )
       222           H   tau( 222) = (   0.6809858   0.6006351   0.7766311  )
       223           O   tau( 223) = (   0.8036952   0.1140512   0.4644003  )
       224           H   tau( 224) = (   0.8250337   0.1237434   0.4725170  )
       225           H   tau( 225) = (   0.7843909   0.1119086   0.4798188  )
       226           O   tau( 226) = (   0.2535799   0.4481740   0.2501298  )
       227           H   tau( 227) = (   0.2576713   0.4726285   0.2495064  )
       228           H   tau( 228) = (   0.2306852   0.4393373   0.2465626  )
       229           O   tau( 229) = (   0.2285502   0.5999216   0.1044145  )
       230           H   tau( 230) = (   0.2195495   0.5768388   0.1032660  )
       231           H   tau( 231) = (   0.2137318   0.6192547   0.0997640  )
       232           O   tau( 232) = (   0.8016601   0.1930288   0.8496559  )
       233           H   tau( 233) = (   0.8045196   0.1683932   0.8499006  )
       234           H   tau( 234) = (   0.8114181   0.2068254   0.8678057  )
       235           O   tau( 235) = (   0.3871762   0.5845834   0.7433394  )
       236           H   tau( 236) = (   0.4088206   0.5957767   0.7387151  )
       237           H   tau( 237) = (   0.3866923   0.5605328   0.7493652  )
       238           O   tau( 238) = (   0.8888705   0.4388464   0.7653528  )
       239           H   tau( 239) = (   0.9000288   0.4273575   0.7842909  )
       240           H   tau( 240) = (   0.8861064   0.4634883   0.7656912  )
       241           O   tau( 241) = (   0.6777044   0.4641794   0.1749612  )
       242           H   tau( 242) = (   0.6636717   0.4685634   0.1949366  )
       243           H   tau( 243) = (   0.6976076   0.4494971   0.1767693  )
       244           O   tau( 244) = (   0.2809322   0.7270032   0.8045433  )
       245           H   tau( 245) = (   0.2711662   0.7081899   0.7916656  )
       246           H   tau( 246) = (   0.2676146   0.7475409   0.8085208  )
       247           O   tau( 247) = (   0.1141628   0.7324511   0.2560286  )
       248           H   tau( 248) = (   0.0998338   0.7440012   0.2726548  )
       249           H   tau( 249) = (   0.1130910   0.7077810   0.2537454  )
       250           O   tau( 250) = (   0.4729506   0.1047134   0.1154756  )
       251           H   tau( 251) = (   0.4505871   0.1106962   0.1065744  )
       252           H   tau( 252) = (   0.4915945   0.0997966   0.0998805  )
       253           O   tau( 253) = (   0.3066828   0.8613529   0.5596866  )
       254           H   tau( 254) = (   0.3013428   0.8776853   0.5418012  )
       255           H   tau( 255) = (   0.3239760   0.8667294   0.5766282  )
       256           O   tau( 256) = (   0.2183969   0.2665143   0.2835312  )
       257           H   tau( 257) = (   0.2163448   0.2500968   0.2650540  )
       258           H   tau( 258) = (   0.2175768   0.2588296   0.3070949  )
       259           O   tau( 259) = (   0.4950305   0.2366331   0.4533619  )
       260           H   tau( 260) = (   0.4807129   0.2567789   0.4512873  )
       261           H   tau( 261) = (   0.5196863   0.2390123   0.4545498  )
       262           O   tau( 262) = (   0.6303880   0.1268958   0.8502162  )
       263           H   tau( 263) = (   0.6071230   0.1346016   0.8540251  )
       264           H   tau( 264) = (   0.6354226   0.1026302   0.8493158  )
       265           O   tau( 265) = (   0.4176093   0.5843024   0.5633858  )
       266           H   tau( 266) = (   0.4176768   0.5741488   0.5860143  )
       267           H   tau( 267) = (   0.4354881   0.5785895   0.5471780  )
       268           O   tau( 268) = (   0.4127120   0.4840074   0.5509860  )
       269           H   tau( 269) = (   0.4260956   0.4777737   0.5709152  )
       270           H   tau( 270) = (   0.3945910   0.4690551   0.5430465  )
       271           O   tau( 271) = (   0.5163221   0.2552856   0.3656103  )
       272           H   tau( 272) = (   0.5010018   0.2592300   0.3465084  )
       273           H   tau( 273) = (   0.5289504   0.2340014   0.3671872  )
       274           O   tau( 274) = (   0.8800888   0.2311804   0.4324397  )
       275           H   tau( 275) = (   0.8991969   0.2158275   0.4362238  )
       276           H   tau( 276) = (   0.8643640   0.2362025   0.4509461  )
       277           O   tau( 277) = (   0.4274283   0.2839708   0.7819446  )
       278           H   tau( 278) = (   0.4028248   0.2808399   0.7820785  )
       279           H   tau( 279) = (   0.4424418   0.2642727   0.7831928  )
       280           O   tau( 280) = (   0.1086556   0.8959281   0.6054766  )
       281           H   tau( 281) = (   0.1326393   0.9000656   0.6007003  )
       282           H   tau( 282) = (   0.0999141   0.8727245   0.6058720  )
       283           O   tau( 283) = (   0.4830684   0.3924090   0.2496095  )
       284           H   tau( 284) = (   0.4906283   0.4156884   0.2456008  )
       285           H   tau( 285) = (   0.4960868   0.3733931   0.2404501  )
       286           O   tau( 286) = (   0.5329062   0.5286960   0.5135011  )
       287           H   tau( 287) = (   0.5574355   0.5322526   0.5125980  )
       288           H   tau( 288) = (   0.5237068   0.5056667   0.5134841  )
       289           O   tau( 289) = (   0.1876808   0.4755830   0.5127814  )
       290           H   tau( 290) = (   0.1909449   0.4869077   0.5346045  )
       291           H   tau( 291) = (   0.1899319   0.4884264   0.4916873  )
       292           O   tau( 292) = (   0.8770165   0.2210684   0.8109078  )
       293           H   tau( 293) = (   0.9000007   0.2272017   0.8179263  )
       294           H   tau( 294) = (   0.8733933   0.2088405   0.7896398  )
       295           O   tau( 295) = (   0.2824338   0.5184814   0.1669881  )
       296           H   tau( 296) = (   0.3043853   0.5122402   0.1767004  )
       297           H   tau( 297) = (   0.2792054   0.5409845   0.1570801  )
       298           O   tau( 298) = (   0.2163131   0.8892977   0.5120890  )
       299           H   tau( 299) = (   0.2281707   0.9000030   0.4931168  )
       300           H   tau( 300) = (   0.2165548   0.8999702   0.5344725  )
       301           O   tau( 301) = (   0.8024986   0.7427240   0.2511308  )
       302           H   tau( 302) = (   0.7845911   0.7266343   0.2451648  )
       303           H   tau( 303) = (   0.8263062   0.7360572   0.2491992  )
       304           O   tau( 304) = (   0.7523542   0.1703407   0.5725578  )
       305           H   tau( 305) = (   0.7349590   0.1537099   0.5785556  )
       306           H   tau( 306) = (   0.7504833   0.1831650   0.5514151  )
       307           O   tau( 307) = (   0.8348901   0.3331191   0.4147173  )
       308           H   tau( 308) = (   0.8233130   0.3441001   0.3957294  )
       309           H   tau( 309) = (   0.8274050   0.3108242   0.4225844  )
       310           O   tau( 310) = (   0.1560983   0.8801219   0.7308978  )
       311           H   tau( 311) = (   0.1472306   0.9000490   0.7190900  )
       312           H   tau( 312) = (   0.1741417   0.8826834   0.7477160  )
       313           O   tau( 313) = (   0.1107899   0.4791169   0.6705958  )
       314           H   tau( 314) = (   0.0999514   0.4580096   0.6778181  )
       315           H   tau( 315) = (   0.1277832   0.4899153   0.6850734  )
       316           O   tau( 316) = (   0.7665957   0.5248354   0.5634521  )
       317           H   tau( 317) = (   0.7853038   0.5256552   0.5471892  )
       318           H   tau( 318) = (   0.7548109   0.5456937   0.5698576  )
       319           O   tau( 319) = (   0.6651116   0.6002116   0.1515138  )
       320           H   tau( 320) = (   0.6795704   0.5800598   0.1515268  )
       321           H   tau( 321) = (   0.6753321   0.6228062   0.1515971  )
       322           O   tau( 322) = (   0.5909306   0.4310093   0.3051093  )
       323           H   tau( 323) = (   0.5996201   0.4281436   0.2820566  )
       324           H   tau( 324) = (   0.6063618   0.4294566   0.3244599  )
       325           O   tau( 325) = (   0.7101170   0.8961296   0.5039838  )
       326           H   tau( 326) = (   0.6858392   0.8999964   0.5072679  )
       327           H   tau( 327) = (   0.7190654   0.8730032   0.5037181  )
       328           O   tau( 328) = (   0.7284744   0.3001965   0.4560258  )
       329           H   tau( 329) = (   0.7498257   0.2876141   0.4570046  )
       330           H   tau( 330) = (   0.7287039   0.3247689   0.4526908  )
       331           O   tau( 331) = (   0.3977440   0.3724870   0.1933470  )
       332           H   tau( 332) = (   0.4102616   0.3927781   0.2001834  )
       333           H   tau( 333) = (   0.3729998   0.3731077   0.1918256  )
       334           O   tau( 334) = (   0.8003227   0.3042080   0.6713222  )
       335           H   tau( 335) = (   0.7778264   0.3084577   0.6617824  )
       336           H   tau( 336) = (   0.8030093   0.2882570   0.6901192  )
       337           O   tau( 337) = (   0.8202997   0.2722306   0.5918140  )
       338           H   tau( 338) = (   0.8019867   0.2589130   0.5816934  )
       339           H   tau( 339) = (   0.8425418   0.2730494   0.5808778  )
       340           O   tau( 340) = (   0.8995872   0.6677364   0.7353023  )
       341           H   tau( 341) = (   0.8937876   0.6639416   0.7591165  )
       342           H   tau( 342) = (   0.9000000   0.6907853   0.7261614  )
       343           O   tau( 343) = (   0.2721108   0.2802240   0.6562898  )
       344           H   tau( 344) = (   0.2663352   0.2924246   0.6770969  )
       345           H   tau( 345) = (   0.2541544   0.2727722   0.6408943  )
       346           O   tau( 346) = (   0.5564801   0.3924304   0.6535235  )
       347           H   tau( 347) = (   0.5420554   0.3987984   0.6726684  )
       348           H   tau( 348) = (   0.5790663   0.4023938   0.6511630  )
       349           O   tau( 349) = (   0.4155150   0.8338628   0.7653877  )
       350           H   tau( 350) = (   0.4242063   0.8570751   0.7644946  )
       351           H   tau( 351) = (   0.4222948   0.8187864   0.7838733  )
       352           O   tau( 352) = (   0.3701550   0.7167074   0.3158688  )
       353           H   tau( 353) = (   0.3603932   0.7052723   0.3355943  )
       354           H   tau( 354) = (   0.3858635   0.7045633   0.3010114  )
       355           O   tau( 355) = (   0.1124280   0.4992038   0.7947290  )
       356           H   tau( 356) = (   0.0999953   0.5206440   0.7937825  )
       357           H   tau( 357) = (   0.1000879   0.4777968   0.7968358  )
       358           O   tau( 358) = (   0.3749511   0.2053639   0.5317778  )
       359           H   tau( 359) = (   0.3513188   0.2081909   0.5387545  )
       360           H   tau( 360) = (   0.3879174   0.2248990   0.5237010  )
       361           O   tau( 361) = (   0.2708660   0.6127036   0.5075987  )
       362           H   tau( 362) = (   0.2728200   0.6028852   0.5302908  )
       363           H   tau( 363) = (   0.2706562   0.5979390   0.4876754  )
       364           O   tau( 364) = (   0.3082455   0.7890135   0.3382918  )
       365           H   tau( 365) = (   0.2988979   0.7679172   0.3291968  )
       366           H   tau( 366) = (   0.3317008   0.7897419   0.3463103  )
       367           O   tau( 367) = (   0.7489954   0.6715348   0.6066421  )
       368           H   tau( 368) = (   0.7675936   0.6576887   0.5978364  )
       369           H   tau( 369) = (   0.7426163   0.6925280   0.5950850  )
       370           O   tau( 370) = (   0.6660934   0.8998834   0.6658275  )
       371           H   tau( 371) = (   0.6413922   0.8996522   0.6680525  )
       372           H   tau( 372) = (   0.6780010   0.8797052   0.6577016  )
       373           O   tau( 373) = (   0.8815608   0.5951982   0.4606152  )
       374           H   tau( 374) = (   0.8664444   0.6148595   0.4608975  )
       375           H   tau( 375) = (   0.8999441   0.5939283   0.4440194  )
       376           O   tau( 376) = (   0.6169272   0.3212828   0.5013227  )
       377           H   tau( 377) = (   0.6152225   0.2985999   0.4914371  )
       378           H   tau( 378) = (   0.6389897   0.3300707   0.5084642  )
       379           O   tau( 379) = (   0.8385854   0.6369008   0.2616864  )
       380           H   tau( 380) = (   0.8423797   0.6124188   0.2628647  )
       381           H   tau( 381) = (   0.8193133   0.6458610   0.2489083  )
       382           O   tau( 382) = (   0.4374316   0.6770454   0.8997796  )
       383           H   tau( 383) = (   0.4278800   0.6541575   0.9000176  )
       384           H   tau( 384) = (   0.4223876   0.6967597   0.8996960  )
       385           O   tau( 385) = (   0.3786637   0.1398146   0.6520848  )
       386           H   tau( 386) = (   0.3542198   0.1363399   0.6497247  )
       387           H   tau( 387) = (   0.3877576   0.1627680   0.6544138  )
       388           O   tau( 388) = (   0.4876432   0.4685189   0.7258663  )
       389           H   tau( 389) = (   0.4756146   0.4902072   0.7255844  )
       390           H   tau( 390) = (   0.5124243   0.4680934   0.7267000  )
       391           O   tau( 391) = (   0.2009023   0.7679902   0.2774501  )
       392           H   tau( 392) = (   0.1964354   0.7456275   0.2872025  )
       393           H   tau( 393) = (   0.1824863   0.7844475   0.2752170  )
       394           O   tau( 394) = (   0.8705428   0.5618489   0.1054412  )
       395           H   tau( 395) = (   0.8666106   0.5863069   0.1042194  )
       396           H   tau( 396) = (   0.8513063   0.5462061   0.1059285  )
       397           O   tau( 397) = (   0.4621143   0.3419820   0.1416838  )
       398           H   tau( 398) = (   0.4794117   0.3433858   0.1594033  )
       399           H   tau( 399) = (   0.4673965   0.3311048   0.1200329  )
       400           O   tau( 400) = (   0.2775852   0.6977457   0.4861024  )
       401           H   tau( 401) = (   0.2731218   0.7144820   0.5038542  )
       402           H   tau( 402) = (   0.2995328   0.6974648   0.4745610  )
       403           O   tau( 403) = (   0.6895017   0.1114074   0.3828796  )
       404           H   tau( 404) = (   0.7086085   0.0999991   0.3719283  )
       405           H   tau( 405) = (   0.6768698   0.0999353   0.4008742  )
       406           O   tau( 406) = (   0.7006001   0.3480062   0.6471410  )
       407           H   tau( 407) = (   0.6886034   0.3608074   0.6646727  )
       408           H   tau( 408) = (   0.6943756   0.3508003   0.6232993  )
       409           O   tau( 409) = (   0.8050729   0.1000008   0.5765079  )
       410           H   tau( 410) = (   0.8024081   0.0999974   0.6011665  )
       411           H   tau( 411) = (   0.8274645   0.1035442   0.5664561  )
       412           O   tau( 412) = (   0.6372544   0.8577897   0.4448050  )
       413           H   tau( 413) = (   0.6508961   0.8728441   0.4305776  )
       414           H   tau( 414) = (   0.6354613   0.8336972   0.4392092  )
       415           O   tau( 415) = (   0.8872862   0.7836376   0.6544871  )
       416           H   tau( 416) = (   0.9000053   0.7667966   0.6675161  )
       417           H   tau( 417) = (   0.8630789   0.7803303   0.6502391  )
       418           O   tau( 418) = (   0.5561877   0.7568568   0.4534259  )
       419           H   tau( 419) = (   0.5780709   0.7473045   0.4601364  )
       420           H   tau( 420) = (   0.5373656   0.7418132   0.4475611  )
       421           O   tau( 421) = (   0.2263389   0.5762650   0.7049821  )
       422           H   tau( 422) = (   0.2016191   0.5743007   0.7054554  )
       423           H   tau( 423) = (   0.2397938   0.5681295   0.7241591  )
       424           O   tau( 424) = (   0.3736705   0.7767872   0.6851731  )
       425           H   tau( 425) = (   0.3630048   0.7569339   0.6748176  )
       426           H   tau( 426) = (   0.3813944   0.7758467   0.7087196  )
       427           O   tau( 427) = (   0.8877445   0.3264644   0.4847301  )
       428           H   tau( 428) = (   0.8999984   0.3060528   0.4916841  )
       429           H   tau( 429) = (   0.9000011   0.3453438   0.4743222  )
       430           O   tau( 430) = (   0.7807638   0.2487092   0.3632234  )
       431           H   tau( 431) = (   0.7885569   0.2686238   0.3506605  )
       432           H   tau( 432) = (   0.7940851   0.2400702   0.3822730  )
       433           O   tau( 433) = (   0.8558125   0.3485656   0.7450168  )
       434           H   tau( 434) = (   0.8690431   0.3299059   0.7546043  )
       435           H   tau( 435) = (   0.8553757   0.3521302   0.7204795  )
       436           O   tau( 436) = (   0.4577659   0.2775009   0.5336739  )
       437           H   tau( 437) = (   0.4774684   0.2809833   0.5483312  )
       438           H   tau( 438) = (   0.4403548   0.2950724   0.5319209  )
       439           O   tau( 439) = (   0.2772211   0.5519536   0.6095075  )
       440           H   tau( 440) = (   0.2943612   0.5698715   0.6089452  )
       441           H   tau( 441) = (   0.2734150   0.5378025   0.5895015  )
       442           O   tau( 442) = (   0.2065393   0.4852070   0.7715838  )
       443           H   tau( 443) = (   0.2072773   0.5043216   0.7873710  )
       444           H   tau( 444) = (   0.2084696   0.4891953   0.7471841  )
       445           O   tau( 445) = (   0.4185506   0.3667639   0.8161732  )
       446           H   tau( 446) = (   0.4358300   0.3842476   0.8194735  )
       447           H   tau( 447) = (   0.4036839   0.3676099   0.7963428  )
       448           O   tau( 448) = (   0.1550822   0.1003526   0.4084341  )
       449           H   tau( 449) = (   0.1767338   0.1070198   0.4185292  )
       450           H   tau( 450) = (   0.1337842   0.1077198   0.4187829  )
       451           O   tau( 451) = (   0.7929410   0.4658967   0.1910553  )
       452           H   tau( 452) = (   0.7817620   0.4744807   0.1706470  )
       453           H   tau( 453) = (   0.8045731   0.4440013   0.1905436  )
       454           O   tau( 454) = (   0.8738362   0.8684224   0.7079403  )
       455           H   tau( 455) = (   0.8656870   0.8855757   0.6919872  )
       456           H   tau( 456) = (   0.8576444   0.8552940   0.7213734  )
       457           O   tau( 457) = (   0.1190531   0.5917830   0.7303868  )
       458           H   tau( 458) = (   0.0999000   0.6070331   0.7343541  )
       459           H   tau( 459) = (   0.1150843   0.5688796   0.7217460  )
       460           O   tau( 460) = (   0.1329681   0.4066650   0.5126785  )
       461           H   tau( 461) = (   0.1362729   0.3903765   0.5310880  )
       462           H   tau( 462) = (   0.1435794   0.4027550   0.4906084  )
       463           O   tau( 463) = (   0.5914734   0.2635657   0.2512097  )
       464           H   tau( 464) = (   0.5706564   0.2746805   0.2435765  )
       465           H   tau( 465) = (   0.5970018   0.2407541   0.2432067  )
       466           O   tau( 466) = (   0.8443047   0.8877604   0.3503350  )
       467           H   tau( 467) = (   0.8654489   0.8999000   0.3548853  )
       468           H   tau( 468) = (   0.8438080   0.8629805   0.3511650  )
       469           O   tau( 469) = (   0.4890310   0.8833092   0.2299194  )
       470           H   tau( 470) = (   0.5073750   0.8991865   0.2350733  )
       471           H   tau( 471) = (   0.4668520   0.8860765   0.2406626  )
       472           O   tau( 472) = (   0.2619254   0.3475879   0.2979857  )
       473           H   tau( 473) = (   0.2619024   0.3510592   0.3225438  )
       474           H   tau( 474) = (   0.2651587   0.3668768   0.2827391  )
       475           O   tau( 475) = (   0.1433230   0.6535548   0.7951126  )
       476           H   tau( 476) = (   0.1444814   0.6491629   0.8194954  )
       477           H   tau( 477) = (   0.1381751   0.6763638   0.7868524  )
       478           O   tau( 478) = (   0.3785022   0.5574379   0.8982160  )
       479           H   tau( 479) = (   0.3783784   0.5327719   0.8956230  )
       480           H   tau( 480) = (   0.4000340   0.5696105   0.9000017  )
       481           O   tau( 481) = (   0.1412897   0.5372696   0.1105170  )
       482           H   tau( 482) = (   0.1286346   0.5198552   0.1228352  )
       483           H   tau( 483) = (   0.1333489   0.5607625   0.1106045  )
       484           O   tau( 484) = (   0.1010187   0.8582968   0.1961639  )
       485           H   tau( 485) = (   0.1074082   0.8581827   0.2201286  )
       486           H   tau( 486) = (   0.0999793   0.8369970   0.1835064  )
       487           O   tau( 487) = (   0.4084058   0.8882454   0.4314054  )
       488           H   tau( 488) = (   0.3902003   0.9006520   0.4200132  )
       489           H   tau( 489) = (   0.4289000   0.9001821   0.4386500  )
       490           O   tau( 490) = (   0.4527778   0.4490805   0.1176766  )
       491           H   tau( 491) = (   0.4314171   0.4443734   0.1293690  )
       492           H   tau( 492) = (   0.4739085   0.4390802   0.1259512  )
       493           O   tau( 493) = (   0.4390981   0.8402306   0.6059098  )
       494           H   tau( 494) = (   0.4181183   0.8287190   0.5993919  )
       495           H   tau( 495) = (   0.4597460   0.8270774   0.6098637  )
       496           O   tau( 496) = (   0.5755078   0.5343382   0.7282720  )
       497           H   tau( 497) = (   0.5699957   0.5580024   0.7232944  )
       498           H   tau( 498) = (   0.5773709   0.5267249   0.7517995  )
       499           O   tau( 499) = (   0.3678288   0.8925244   0.2593329  )
       500           H   tau( 500) = (   0.3712484   0.9002153   0.2360025  )
       501           H   tau( 501) = (   0.3831348   0.9001771   0.2772812  )
       502           O   tau( 502) = (   0.8357867   0.5701957   0.7661087  )
       503           H   tau( 503) = (   0.8528291   0.5543448   0.7575383  )
       504           H   tau( 504) = (   0.8361778   0.5939189   0.7588950  )
       505           O   tau( 505) = (   0.4993602   0.8814258   0.8175291  )
       506           H   tau( 506) = (   0.4839327   0.9002114   0.8126051  )
       507           H   tau( 507) = (   0.4902653   0.8589497   0.8227336  )
       508           O   tau( 508) = (   0.3932022   0.4449566   0.7557680  )
       509           H   tau( 509) = (   0.4036310   0.4397791   0.7338686  )
       510           H   tau( 510) = (   0.4070009   0.4541482   0.7742096  )
       511           O   tau( 511) = (   0.4085862   0.7547332   0.4033662  )
       512           H   tau( 512) = (   0.3840593   0.7527699   0.4064848  )
       513           H   tau( 513) = (   0.4189924   0.7770796   0.4006598  )
       514           O   tau( 514) = (   0.2612287   0.7057637   0.9001453  )
       515           H   tau( 515) = (   0.2798102   0.7201801   0.8922685  )
       516           H   tau( 516) = (   0.2557961   0.6848160   0.8880349  )
       517           O   tau( 517) = (   0.7379948   0.6895219   0.1087872  )
       518           H   tau( 518) = (   0.7508694   0.6917061   0.1298734  )
       519           H   tau( 519) = (   0.7316734   0.6670614   0.1003883  )
       520           O   tau( 520) = (   0.6781589   0.7907636   0.8152572  )
       521           H   tau( 521) = (   0.6886070   0.7683654   0.8131809  )
       522           H   tau( 522) = (   0.6645075   0.7998508   0.7966550  )
       523           O   tau( 523) = (   0.7292970   0.5493710   0.4781702  )
       524           H   tau( 524) = (   0.7191913   0.5670556   0.4923223  )
       525           H   tau( 525) = (   0.7509630   0.5534483   0.4668150  )
       526           O   tau( 526) = (   0.4512574   0.2913965   0.2739650  )
       527           H   tau( 527) = (   0.4744751   0.2874319   0.2661950  )
       528           H   tau( 528) = (   0.4437983   0.3143832   0.2795284  )
       529           O   tau( 529) = (   0.5096412   0.7221073   0.5542014  )
       530           H   tau( 530) = (   0.5137214   0.7321788   0.5319064  )
       531           H   tau( 531) = (   0.4959562   0.7342208   0.5709634  )
       532           O   tau( 532) = (   0.4187075   0.5972168   0.1098441  )
       533           H   tau( 533) = (   0.4387677   0.5864740   0.0999783  )
       534           H   tau( 534) = (   0.4096365   0.6180428   0.0998956  )
       535           O   tau( 535) = (   0.6407644   0.2221902   0.8996299  )
       536           H   tau( 536) = (   0.6582594   0.2397313   0.8984522  )
       537           H   tau( 537) = (   0.6472156   0.1982482   0.9000033  )
       538           O   tau( 538) = (   0.2344014   0.2161347   0.8390085  )
       539           H   tau( 539) = (   0.2208902   0.2280097   0.8219328  )
       540           H   tau( 540) = (   0.2579257   0.2228475   0.8430737  )
       541           O   tau( 541) = (   0.6689356   0.6118044   0.8696563  )
       542           H   tau( 542) = (   0.6702937   0.6352897   0.8617984  )
       543           H   tau( 543) = (   0.6689893   0.6068352   0.8939520  )
       544           O   tau( 544) = (   0.1412253   0.1949196   0.3086779  )
       545           H   tau( 545) = (   0.1647149   0.1886526   0.3135882  )
       546           H   tau( 546) = (   0.1363365   0.2153788   0.2955440  )
       547           O   tau( 547) = (   0.6882775   0.6116545   0.5771999  )
       548           H   tau( 548) = (   0.6783646   0.5889381   0.5762774  )
       549           H   tau( 549) = (   0.6957470   0.6227808   0.5563339  )
       550           O   tau( 550) = (   0.1297951   0.3179073   0.2545814  )
       551           H   tau( 551) = (   0.1525160   0.3170075   0.2446766  )
       552           H   tau( 552) = (   0.1153502   0.3376874   0.2506989  )
       553           O   tau( 553) = (   0.3675969   0.3679651   0.9000347  )
       554           H   tau( 554) = (   0.3921594   0.3645256   0.9000805  )
       555           H   tau( 555) = (   0.3523386   0.3484161   0.8999823  )
       556           O   tau( 556) = (   0.6716969   0.5645812   0.6702415  )
       557           H   tau( 557) = (   0.6496940   0.5536731   0.6737107  )
       558           H   tau( 558) = (   0.6759945   0.5871080   0.6796782  )
       559           O   tau( 559) = (   0.7887278   0.6151339   0.5169739  )
       560           H   tau( 560) = (   0.7739639   0.6336799   0.5096785  )
       561           H   tau( 561) = (   0.8092032   0.6200095   0.5300874  )
       562           O   tau( 562) = (   0.6345409   0.1000680   0.2229628  )
       563           H   tau( 563) = (   0.6205774   0.1022940   0.2433397  )
       564           H   tau( 564) = (   0.6450787   0.1201342   0.2128990  )
       565           O   tau( 565) = (   0.1077486   0.4919995   0.5739990  )
       566           H   tau( 566) = (   0.1032917   0.5158075   0.5686636  )
       567           H   tau( 567) = (   0.0999642   0.4741766   0.5586132  )
       568           O   tau( 568) = (   0.6733910   0.2279116   0.4846523  )
       569           H   tau( 569) = (   0.6689295   0.2356469   0.4615133  )
       570           H   tau( 570) = (   0.6700667   0.2040709   0.4906146  )
       571           O   tau( 571) = (   0.7202816   0.2760046   0.7209008  )
       572           H   tau( 572) = (   0.7008934   0.2844279   0.7079280  )
       573           H   tau( 573) = (   0.7235990   0.2516008   0.7238043  )
       574           O   tau( 574) = (   0.2019606   0.5472472   0.3136829  )
       575           H   tau( 575) = (   0.1964433   0.5265809   0.3262374  )
       576           H   tau( 576) = (   0.1943273   0.5692858   0.3221098  )
       577           O   tau( 577) = (   0.2900032   0.5998176   0.7890976  )
       578           H   tau( 578) = (   0.3130245   0.5989784   0.7982881  )
       579           H   tau( 579) = (   0.2806122   0.6213395   0.7811230  )
       580           O   tau( 580) = (   0.6216167   0.8940857   0.7593900  )
       581           H   tau( 581) = (   0.6183310   0.8999961   0.7832526  )
       582           H   tau( 582) = (   0.6344556   0.8737608   0.7533038  )
       583           O   tau( 583) = (   0.3585166   0.6010626   0.4904014  )
       584           H   tau( 584) = (   0.3556859   0.5772618   0.4967776  )
       585           H   tau( 585) = (   0.3586219   0.6186542   0.5078800  )
       586           O   tau( 586) = (   0.7410217   0.8008462   0.5513018  )
       587           H   tau( 587) = (   0.7275531   0.7905413   0.5332033  )
       588           H   tau( 588) = (   0.7650994   0.7953370   0.5535133  )
       589           O   tau( 589) = (   0.7830665   0.1794756   0.6845546  )
       590           H   tau( 590) = (   0.7602578   0.1862951   0.6775971  )
       591           H   tau( 591) = (   0.7873589   0.1561613   0.6918344  )
       592           O   tau( 592) = (   0.4562132   0.7428316   0.6732379  )
       593           H   tau( 593) = (   0.4633360   0.7461360   0.6967644  )
       594           H   tau( 594) = (   0.4730545   0.7376082   0.6558005  )
       595           O   tau( 595) = (   0.5766954   0.6510778   0.5573312  )
       596           H   tau( 596) = (   0.5819868   0.6691350   0.5411730  )
       597           H   tau( 597) = (   0.5840572   0.6278345   0.5528003  )
       598           O   tau( 598) = (   0.4634928   0.6414814   0.2881316  )
       599           H   tau( 599) = (   0.4585955   0.6388339   0.2639622  )
       600           H   tau( 600) = (   0.4868748   0.6400740   0.2962726  )
       601           O   tau( 601) = (   0.7074235   0.7995879   0.3139336  )
       602           H   tau( 602) = (   0.7165216   0.7955690   0.3366542  )
       603           H   tau( 603) = (   0.7113653   0.7830370   0.2958917  )
       604           O   tau( 604) = (   0.1113501   0.1930164   0.4081266  )
       605           H   tau( 605) = (   0.1015274   0.1962360   0.4306721  )
       606           H   tau( 606) = (   0.1358293   0.1952316   0.4048343  )
       607           O   tau( 607) = (   0.2098920   0.5938688   0.8428411  )
       608           H   tau( 608) = (   0.2214066   0.6156142   0.8459563  )
       609           H   tau( 609) = (   0.2231568   0.5731281   0.8398665  )
       610           O   tau( 610) = (   0.2673784   0.1385287   0.4457049  )
       611           H   tau( 611) = (   0.2783830   0.1580216   0.4563856  )
       612           H   tau( 612) = (   0.2809704   0.1191955   0.4381906  )
       613           O   tau( 613) = (   0.6605652   0.2127167   0.8117189  )
       614           H   tau( 614) = (   0.6793528   0.1965511   0.8126420  )
       615           H   tau( 615) = (   0.6372710   0.2045358   0.8093892  )
       616           O   tau( 616) = (   0.7850992   0.4265995   0.7287280  )
       617           H   tau( 617) = (   0.8073974   0.4369013   0.7321650  )
       618           H   tau( 618) = (   0.7833144   0.4025832   0.7228112  )
       619           O   tau( 619) = (   0.2564328   0.6609098   0.3190628  )
       620           H   tau( 620) = (   0.2547669   0.6831026   0.3300104  )
       621           H   tau( 621) = (   0.2359205   0.6493580   0.3112666  )
       622           O   tau( 622) = (   0.7739046   0.3697090   0.1150283  )
       623           H   tau( 623) = (   0.7781144   0.3787826   0.1377240  )
       624           H   tau( 624) = (   0.7571389   0.3517280   0.1117761  )
       625           O   tau( 625) = (   0.4992523   0.6894197   0.8208161  )
       626           H   tau( 626) = (   0.4809917   0.6728350   0.8233946  )
       627           H   tau( 627) = (   0.5006328   0.7032507   0.8002789  )
       628           O   tau( 628) = (   0.6753287   0.1172742   0.5040360  )
       629           H   tau( 629) = (   0.6698933   0.1240823   0.5272578  )
       630           H   tau( 630) = (   0.6981923   0.1208109   0.4951070  )
       631           O   tau( 631) = (   0.7533616   0.8882976   0.5833009  )
       632           H   tau( 632) = (   0.7438782   0.8999996   0.6030057  )
       633           H   tau( 633) = (   0.7710309   0.8991878   0.5697297  )
       634           O   tau( 634) = (   0.4730980   0.1841612   0.2962342  )
       635           H   tau( 635) = (   0.4977762   0.1866112   0.2958684  )
       636           H   tau( 636) = (   0.4586159   0.2039803   0.2927056  )
       637           O   tau( 637) = (   0.2764120   0.4516010   0.6068379  )
       638           H   tau( 638) = (   0.2880830   0.4424126   0.5869756  )
       639           H   tau( 639) = (   0.2539756   0.4430794   0.6130804  )
       640           O   tau( 640) = (   0.4236145   0.5296089   0.4675638  )
       641           H   tau( 641) = (   0.4446801   0.5235279   0.4791575  )
       642           H   tau( 642) = (   0.4061470   0.5124218   0.4637605  )
       643           O   tau( 643) = (   0.8638025   0.1727874   0.1158125  )
       644           H   tau( 644) = (   0.8741070   0.1943023   0.1226004  )
       645           H   tau( 645) = (   0.8613143   0.1544694   0.1323425  )
       646           O   tau( 646) = (   0.7690767   0.5878991   0.1589900  )
       647           H   tau( 647) = (   0.7757989   0.6116512   0.1565811  )
       648           H   tau( 648) = (   0.7863822   0.5701827   0.1602664  )
       649           O   tau( 649) = (   0.7374326   0.2778100   0.8935177  )
       650           H   tau( 650) = (   0.7560488   0.2928602   0.9000047  )
       651           H   tau( 651) = (   0.7414539   0.2593006   0.8775112  )
       652           O   tau( 652) = (   0.8537666   0.7426275   0.7908798  )
       653           H   tau( 653) = (   0.8528922   0.7672577   0.7936615  )
       654           H   tau( 654) = (   0.8327907   0.7297270   0.7879528  )
       655           O   tau( 655) = (   0.2166802   0.4645800   0.4088747  )
       656           H   tau( 656) = (   0.1943412   0.4539842   0.4108361  )
       657           H   tau( 657) = (   0.2186794   0.4892925   0.4083466  )
       658           O   tau( 658) = (   0.6603504   0.4273061   0.5962551  )
       659           H   tau( 659) = (   0.6394401   0.4163334   0.5886716  )
       660           H   tau( 660) = (   0.6600642   0.4511330   0.6031236  )
       661           O   tau( 661) = (   0.6324957   0.1759042   0.4014323  )
       662           H   tau( 662) = (   0.6358850   0.1814002   0.3774853  )
       663           H   tau( 663) = (   0.6097354   0.1708809   0.4099007  )
       664           O   tau( 664) = (   0.1892903   0.4018518   0.3145631  )
       665           H   tau( 665) = (   0.1798673   0.4100210   0.3360019  )
       666           H   tau( 666) = (   0.1762185   0.3862210   0.3004286  )
       667           O   tau( 667) = (   0.6689861   0.7255872   0.5235031  )
       668           H   tau( 668) = (   0.6632486   0.7385389   0.5031442  )
       669           H   tau( 669) = (   0.6894464   0.7115810   0.5239329  )
       670           O   tau( 670) = (   0.1109075   0.6056068   0.6360440  )
       671           H   tau( 671) = (   0.1337936   0.6082862   0.6452199  )
       672           H   tau( 672) = (   0.0999868   0.5833432   0.6362667  )
       673           O   tau( 673) = (   0.7110681   0.2943663   0.5534449  )
       674           H   tau( 674) = (   0.7214066   0.2735361   0.5448213  )
       675           H   tau( 675) = (   0.7199373   0.3164368   0.5464299  )
       676           O   tau( 676) = (   0.5115548   0.6388004   0.4727621  )
       677           H   tau( 677) = (   0.5175049   0.6620648   0.4789678  )
       678           H   tau( 678) = (   0.5272848   0.6202582   0.4776339  )
       679           O   tau( 679) = (   0.4281027   0.5335114   0.2366223  )
       680           H   tau( 680) = (   0.4116941   0.5149134   0.2364660  )
       681           H   tau( 681) = (   0.4524094   0.5286007   0.2368379  )
       682           O   tau( 682) = (   0.6763291   0.4952619   0.4081208  )
       683           H   tau( 683) = (   0.6862137   0.5144282   0.3958693  )
       684           H   tau( 684) = (   0.6828907   0.4908571   0.4316265  )
       685           O   tau( 685) = (   0.8894862   0.4052960   0.3817753  )
       686           H   tau( 686) = (   0.9000102   0.4272137   0.3768756  )
       687           H   tau( 687) = (   0.9000444   0.3898287   0.3980316  )
       688           O   tau( 688) = (   0.1646350   0.2365338   0.1007794  )
       689           H   tau( 689) = (   0.1444876   0.2385413   0.1151043  )
       690           H   tau( 690) = (   0.1818965   0.2195034   0.1059744  )
       691           O   tau( 691) = (   0.5811823   0.6204702   0.8284128  )
       692           H   tau( 692) = (   0.5566545   0.6229282   0.8256749  )
       693           H   tau( 693) = (   0.5966305   0.6331497   0.8137307  )
       694           O   tau( 694) = (   0.8033066   0.7130602   0.6805068  )
       695           H   tau( 695) = (   0.8175345   0.6927875   0.6818230  )
       696           H   tau( 696) = (   0.7786244   0.7108474   0.6795743  )
       697           O   tau( 697) = (   0.2848497   0.5037784   0.4986430  )
       698           H   tau( 698) = (   0.2752055   0.5107322   0.4768764  )
       699           H   tau( 699) = (   0.2757853   0.4839451   0.5104522  )
       700           O   tau( 700) = (   0.1559406   0.5350547   0.2276729  )
       701           H   tau( 701) = (   0.1438046   0.5410362   0.2068861  )
       702           H   tau( 702) = (   0.1805614   0.5377654   0.2288736  )
       703           O   tau( 703) = (   0.7485208   0.6609347   0.7652214  )
       704           H   tau( 704) = (   0.7629832   0.6810818   0.7655188  )
       705           H   tau( 705) = (   0.7545494   0.6415524   0.7509750  )
       706           O   tau( 706) = (   0.1130699   0.7996864   0.7634240  )
       707           H   tau( 707) = (   0.0999008   0.8207035   0.7633606  )
       708           H   tau( 708) = (   0.1014554   0.7777764   0.7636055  )
       709           O   tau( 709) = (   0.4858486   0.7054817   0.1824765  )
       710           H   tau( 710) = (   0.5044596   0.7102385   0.1667871  )
       711           H   tau( 711) = (   0.4828582   0.6826165   0.1915990  )
       712           O   tau( 712) = (   0.6195362   0.5470029   0.2136064  )
       713           H   tau( 713) = (   0.6122871   0.5706556   0.2153809  )
       714           H   tau( 714) = (   0.6028556   0.5287479   0.2154756  )
       715           O   tau( 715) = (   0.1012084   0.6206841   0.2567956  )
       716           H   tau( 716) = (   0.0999644   0.6234446   0.2321789  )
       717           H   tau( 717) = (   0.1112603   0.6001877   0.2664825  )
       718           O   tau( 718) = (   0.3500209   0.6079763   0.1638246  )
       719           H   tau( 719) = (   0.3534038   0.5853716   0.1734544  )
       720           H   tau( 720) = (   0.3282740   0.6139281   0.1534985  )
       721           O   tau( 721) = (   0.5767342   0.2292860   0.5321403  )
       722           H   tau( 722) = (   0.5538906   0.2382722   0.5356858  )
       723           H   tau( 723) = (   0.5798160   0.2058280   0.5247102  )
       724           O   tau( 724) = (   0.7848140   0.8590322   0.2699415  )
       725           H   tau( 725) = (   0.8082240   0.8671832   0.2707668  )
       726           H   tau( 726) = (   0.7791620   0.8366234   0.2789348  )
       727           O   tau( 727) = (   0.4305887   0.6082053   0.4227057  )
       728           H   tau( 728) = (   0.4432941   0.6253636   0.4100837  )
       729           H   tau( 729) = (   0.4069100   0.6035896   0.4169616  )
       730           O   tau( 730) = (   0.5673069   0.0999846   0.7823537  )
       731           H   tau( 731) = (   0.5904356   0.1021763   0.7736698  )
       732           H   tau( 732) = (   0.5480018   0.1049975   0.7676172  )
       733           O   tau( 733) = (   0.3617438   0.3152803   0.3113850  )
       734           H   tau( 734) = (   0.3482790   0.3346218   0.3191153  )
       735           H   tau( 735) = (   0.3691337   0.2980406   0.3276071  )
       736           O   tau( 736) = (   0.8854285   0.5918346   0.5722976  )
       737           H   tau( 737) = (   0.8896776   0.5893093   0.5479930  )
       738           H   tau( 738) = (   0.9004399   0.5808748   0.5887146  )
       739           O   tau( 739) = (   0.1327894   0.3655229   0.1134599  )
       740           H   tau( 740) = (   0.1491591   0.3525956   0.1000409  )
       741           H   tau( 741) = (   0.1295942   0.3603180   0.1374948  )
       742           O   tau( 742) = (   0.5433470   0.2234458   0.8961222  )
       743           H   tau( 743) = (   0.5551236   0.2019847   0.9001072  )
       744           H   tau( 744) = (   0.5557694   0.2448604   0.8975637  )
       745           O   tau( 745) = (   0.7398036   0.1749298   0.4171762  )
       746           H   tau( 746) = (   0.7589913   0.1632122   0.4067035  )
       747           H   tau( 747) = (   0.7418956   0.1840901   0.4401260  )
       748           O   tau( 748) = (   0.2562046   0.8781028   0.1095950  )
       749           H   tau( 749) = (   0.2592874   0.8551731   0.1006578  )
       750           H   tau( 750) = (   0.2387790   0.8929115   0.1000020  )
       751           O   tau( 751) = (   0.5573598   0.3480330   0.2995766  )
       752           H   tau( 752) = (   0.5816300   0.3434169   0.2973848  )
       753           H   tau( 753) = (   0.5417804   0.3297785   0.3058242  )
       754           O   tau( 754) = (   0.4817559   0.3100879   0.6365208  )
       755           H   tau( 755) = (   0.4590444   0.3145003   0.6275839  )
       756           H   tau( 756) = (   0.4986819   0.3282089   0.6368662  )
       757           O   tau( 757) = (   0.8636418   0.2736037   0.8932466  )
       758           H   tau( 758) = (   0.8438459   0.2869318   0.9000018  )
       759           H   tau( 759) = (   0.8829243   0.2847143   0.8823050  )
       760           O   tau( 760) = (   0.4076007   0.3843784   0.6130316  )
       761           H   tau( 761) = (   0.3993264   0.3970086   0.5933552  )
       762           H   tau( 762) = (   0.4230950   0.3951964   0.6290902  )
       763           O   tau( 763) = (   0.5525580   0.8825891   0.8994480  )
       764           H   tau( 764) = (   0.5287606   0.8756478   0.9002547  )
       765           H   tau( 765) = (   0.5598478   0.9000396   0.8834068  )
       766           O   tau( 766) = (   0.6441280   0.7541768   0.3754396  )
       767           H   tau( 767) = (   0.6399060   0.7439269   0.3976266  )
       768           H   tau( 768) = (   0.6375947   0.7777231   0.3712127  )
       769           O   tau( 769) = (   0.3160468   0.4154132   0.8413381  )
       770           H   tau( 770) = (   0.3147647   0.4276998   0.8628450  )
       771           H   tau( 771) = (   0.3345558   0.4200433   0.8254965  )
       772           O   tau( 772) = (   0.1791808   0.5227196   0.6151866  )
       773           H   tau( 773) = (   0.1877289   0.5003115   0.6215079  )
       774           H   tau( 774) = (   0.1901912   0.5431255   0.6239813  )
       775           O   tau( 775) = (   0.5512108   0.4077534   0.7785928  )
       776           H   tau( 776) = (   0.5640383   0.4039341   0.7577117  )
       777           H   tau( 777) = (   0.5554329   0.4280494   0.7922025  )
       778           O   tau( 778) = (   0.4759517   0.6457330   0.5871228  )
       779           H   tau( 779) = (   0.4964879   0.6318529   0.5879925  )
       780           H   tau( 780) = (   0.4689041   0.6587112   0.6070446  )
       781           O   tau( 781) = (   0.6027833   0.6274146   0.6387786  )
       782           H   tau( 782) = (   0.5839886   0.6414139   0.6468984  )
       783           H   tau( 783) = (   0.6236426   0.6381292   0.6307123  )
       784           O   tau( 784) = (   0.6922172   0.3198516   0.7973289  )
       785           H   tau( 785) = (   0.6836798   0.2965975   0.7985574  )
       786           H   tau( 786) = (   0.7165054   0.3240130   0.7945460  )
       787           O   tau( 787) = (   0.6744936   0.2244954   0.2815229  )
       788           H   tau( 788) = (   0.6661233   0.2103480   0.3000955  )
       789           H   tau( 789) = (   0.6795719   0.2143068   0.2594915  )
       790           O   tau( 790) = (   0.4865344   0.8107002   0.4676656  )
       791           H   tau( 791) = (   0.4693872   0.8238943   0.4555396  )
       792           H   tau( 792) = (   0.4965543   0.8195924   0.4885344  )
       793           O   tau( 793) = (   0.3716076   0.6682576   0.8337344  )
       794           H   tau( 794) = (   0.3815068   0.6470268   0.8255851  )
       795           H   tau( 795) = (   0.3510679   0.6772371   0.8231293  )
       796           O   tau( 796) = (   0.6486643   0.7082520   0.1551631  )
       797           H   tau( 797) = (   0.6544688   0.7058031   0.1311743  )
       798           H   tau( 798) = (   0.6665410   0.7078857   0.1723464  )
       799           O   tau( 799) = (   0.2262404   0.8883972   0.6428580  )
       800           H   tau( 800) = (   0.2313782   0.8994425   0.6212535  )
       801           H   tau( 801) = (   0.2032357   0.8892850   0.6520763  )
       802           O   tau( 802) = (   0.6558724   0.7234386   0.6104740  )
       803           H   tau( 803) = (   0.6338824   0.7250434   0.6218326  )
       804           H   tau( 804) = (   0.6719885   0.7422292   0.6119438  )
       805           O   tau( 805) = (   0.8046467   0.8583382   0.1787541  )
       806           H   tau( 806) = (   0.7872756   0.8413603   0.1837686  )
       807           H   tau( 807) = (   0.7984978   0.8823196   0.1773179  )
       808           O   tau( 808) = (   0.4966373   0.1514269   0.8404202  )
       809           H   tau( 809) = (   0.5209719   0.1466497   0.8408143  )
       810           H   tau( 810) = (   0.4875765   0.1706980   0.8531286  )
       811           O   tau( 811) = (   0.1952570   0.4325814   0.1420076  )
       812           H   tau( 812) = (   0.2052012   0.4426060   0.1623980  )
       813           H   tau( 813) = (   0.1735414   0.4409222   0.1334147  )
       814           O   tau( 814) = (   0.1687855   0.7915227   0.6942114  )
       815           H   tau( 815) = (   0.1522078   0.8012087   0.6785107  )
       816           H   tau( 816) = (   0.1667376   0.7678677   0.7013685  )
       817           O   tau( 817) = (   0.5869173   0.6809679   0.2486536  )
       818           H   tau( 818) = (   0.5631366   0.6861579   0.2534172  )
       819           H   tau( 819) = (   0.5940961   0.6574316   0.2455735  )
       820           O   tau( 820) = (   0.4316540   0.7137577   0.1118710  )
       821           H   tau( 821) = (   0.4482713   0.6997906   0.0998737  )
       822           H   tau( 822) = (   0.4113015   0.7033264   0.1214596  )
       823           O   tau( 823) = (   0.7099696   0.9000163   0.1176764  )
       824           H   tau( 824) = (   0.7225308   0.8835771   0.1313557  )
       825           H   tau( 825) = (   0.6923580   0.8922543   0.1020379  )
       826           O   tau( 826) = (   0.1860536   0.8388613   0.1466340  )
       827           H   tau( 827) = (   0.1826747   0.8156038   0.1545601  )
       828           H   tau( 828) = (   0.1827742   0.8578718   0.1622169  )
       829           O   tau( 829) = (   0.8194945   0.3308006   0.2373684  )
       830           H   tau( 830) = (   0.8390083   0.3156683   0.2350500  )
       831           H   tau( 831) = (   0.7965681   0.3221400   0.2335799  )
       832           O   tau( 832) = (   0.4080494   0.2595271   0.6968632  )
       833           H   tau( 833) = (   0.4319539   0.2660599   0.6958400  )
       834           H   tau( 834) = (   0.4018210   0.2359282   0.7012536  )
       835           O   tau( 835) = (   0.4340877   0.4519958   0.8959044  )
       836           H   tau( 836) = (   0.4482174   0.4319213   0.8923664  )
       837           H   tau( 837) = (   0.4094971   0.4505082   0.8930637  )
       838           O   tau( 838) = (   0.8076303   0.2540878   0.1788954  )
       839           H   tau( 839) = (   0.8227458   0.2346110   0.1816021  )
       840           H   tau( 840) = (   0.7831268   0.2512096   0.1814001  )
       841           O   tau( 841) = (   0.8172254   0.7727160   0.1376050  )
       842           H   tau( 842) = (   0.8153529   0.7889371   0.1189364  )
       843           H   tau( 843) = (   0.8214724   0.7487542   0.1328326  )
       844           O   tau( 844) = (   0.1734355   0.7184647   0.4521302  )
       845           H   tau( 845) = (   0.1799258   0.7413129   0.4592706  )
       846           H   tau( 846) = (   0.1501557   0.7138688   0.4449257  )
       847           O   tau( 847) = (   0.6663868   0.4590880   0.9000079  )
       848           H   tau( 848) = (   0.6598293   0.4351685   0.8999340  )
       849           H   tau( 849) = (   0.6489534   0.4767248   0.9000300  )
       850           O   tau( 850) = (   0.4350797   0.2285849   0.1433146  )
       851           H   tau( 851) = (   0.4286440   0.2068010   0.1333550  )
       852           H   tau( 852) = (   0.4502406   0.2438580   0.1309915  )
       853           O   tau( 853) = (   0.4626345   0.3599969   0.3730479  )
       854           H   tau( 854) = (   0.4652448   0.3382313   0.3614464  )
       855           H   tau( 855) = (   0.4805906   0.3770414   0.3716199  )
       856           O   tau( 856) = (   0.6633176   0.4558726   0.6945108  )
       857           H   tau( 857) = (   0.6500037   0.4351461   0.6916297  )
       858           H   tau( 858) = (   0.6868538   0.4566723   0.6867399  )
       859           O   tau( 859) = (   0.7982791   0.5965167   0.3771301  )
       860           H   tau( 860) = (   0.7981713   0.5764572   0.3625440  )
       861           H   tau( 861) = (   0.7852984   0.5965536   0.3982601  )
       862           O   tau( 862) = (   0.5736843   0.1449014   0.3158912  )
       863           H   tau( 863) = (   0.5917281   0.1580103   0.3050409  )
       864           H   tau( 864) = (   0.5793964   0.1261104   0.3310322  )
       865           O   tau( 865) = (   0.2664838   0.7450232   0.4077117  )
       866           H   tau( 866) = (   0.2497821   0.7266877   0.4078170  )
       867           H   tau( 867) = (   0.2593416   0.7683284   0.4122760  )
       868           O   tau( 868) = (   0.8774728   0.8519586   0.4532176  )
       869           H   tau( 869) = (   0.9000053   0.8513951   0.4635674  )
       870           H   tau( 870) = (   0.8689711   0.8321644   0.4409339  )
       871           O   tau( 871) = (   0.8994546   0.1028925   0.3319268  )
       872           H   tau( 872) = (   0.8978971   0.1256656   0.3416280  )
       873           H   tau( 873) = (   0.9001402   0.0999185   0.3073166  )
       874           O   tau( 874) = (   0.4292176   0.4331788   0.3061266  )
       875           H   tau( 875) = (   0.4138092   0.4483551   0.2939853  )
       876           H   tau( 876) = (   0.4207043   0.4119662   0.3157458  )
       877           O   tau( 877) = (   0.1239940   0.1540363   0.1731756  )
       878           H   tau( 878) = (   0.1391139   0.1736635   0.1743198  )
       879           H   tau( 879) = (   0.1011999   0.1564778   0.1637180  )
       880           O   tau( 880) = (   0.2335367   0.6440675   0.5986634  )
       881           H   tau( 881) = (   0.2235915   0.6217211   0.6027722  )
       882           H   tau( 882) = (   0.2192700   0.6643340   0.5995040  )
       883           O   tau( 883) = (   0.2713814   0.7688940   0.7232368  )
       884           H   tau( 884) = (   0.2500667   0.7811971   0.7263136  )
       885           H   tau( 885) = (   0.2781306   0.7612419   0.7006343  )
       886           O   tau( 886) = (   0.6732732   0.4806472   0.5184932  )
       887           H   tau( 887) = (   0.6707230   0.4564248   0.5138109  )
       888           H   tau( 888) = (   0.6931412   0.4888632   0.5308519  )
       889           O   tau( 889) = (   0.5374162   0.4653867   0.3658652  )
       890           C   tau( 890) = (   0.5459439   0.5202251   0.3779133  )
       891           C   tau( 891) = (   0.5447098   0.5521385   0.3264688  )
       892           H   tau( 892) = (   0.5148812   0.5336484   0.4056606  )
       893           H   tau( 893) = (   0.5848351   0.5241077   0.3975686  )
       894           H   tau( 894) = (   0.5518688   0.5945784   0.3342961  )
       895           H   tau( 895) = (   0.5751364   0.5375921   0.2985223  )
       896           H   tau( 896) = (   0.5059745   0.5478690   0.3064707  )
       897           H   tau( 897) = (   0.5023876   0.4623064   0.3492303  )
       898           O   tau( 898) = (   0.5127275   0.7981727   0.2417535  )
       899           C   tau( 899) = (   0.5217219   0.8057474   0.2973129  )
       900           C   tau( 900) = (   0.4956028   0.7604635   0.3278692  )
       901           H   tau( 901) = (   0.5648429   0.8070448   0.3046536  )
       902           H   tau( 902) = (   0.5044272   0.8442159   0.3089319  )
       903           H   tau( 903) = (   0.5012065   0.7654875   0.3709623  )
       904           H   tau( 904) = (   0.4526832   0.7587693   0.3193006  )
       905           H   tau( 905) = (   0.5125079   0.7218697   0.3158980  )
       906           H   tau( 906) = (   0.5290268   0.7643109   0.2317074  )
       907           O   tau( 907) = (   0.5955835   0.8258580   0.8477516  )
       908           C   tau( 908) = (   0.5624584   0.7821103   0.8623803  )
       909           C   tau( 909) = (   0.5953120   0.7312587   0.8612447  )
       910           H   tau( 910) = (   0.5460100   0.7894858   0.9022556  )
       911           H   tau( 911) = (   0.5293722   0.7797630   0.8338545  )
       912           H   tau( 912) = (   0.5707347   0.6966051   0.8716726  )
       913           H   tau( 913) = (   0.6125762   0.7248952   0.8214976  )
       914           H   tau( 914) = (   0.6287682   0.7337530   0.8894057  )
       915           H   tau( 915) = (   0.6243257   0.8280984   0.8738682  )
       916           O   tau( 916) = (   0.3133159   0.2403334   0.2452610  )
       917           C   tau( 917) = (   0.3286023   0.1884205   0.2624801  )
       918           C   tau( 918) = (   0.3645208   0.1635254   0.2205680  )
       919           H   tau( 919) = (   0.3490936   0.1917164   0.3010058  )
       920           H   tau( 920) = (   0.2923734   0.1645141   0.2679467  )
       921           H   tau( 921) = (   0.3764767   0.1231193   0.2323178  )
       922           H   tau( 922) = (   0.3440622   0.1615265   0.1818920  )
       923           H   tau( 923) = (   0.4005689   0.1876974   0.2146674  )
       924           H   tau( 924) = (   0.3457440   0.2614682   0.2413937  )
       925           O   tau( 925) = (   0.6190802   0.5873040   0.4824643  )
       926           C   tau( 926) = (   0.6213939   0.6262818   0.4412272  )
       927           C   tau( 927) = (   0.6793558   0.6365545   0.4270351  )
       928           H   tau( 928) = (   0.5989356   0.6116743   0.4066262  )
       929           H   tau( 929) = (   0.6023404   0.6628702   0.4557936  )
       930           H   tau( 930) = (   0.6825762   0.6669922   0.3957808  )
       931           H   tau( 931) = (   0.7017337   0.6499902   0.4622074  )
       932           H   tau( 932) = (   0.6986359   0.5998364   0.4129414  )
       933           H   tau( 933) = (   0.6353177   0.5547146   0.4687717  )
       934           O   tau( 934) = (   0.7697325   0.5630812   0.9004496  )
       935           C   tau( 935) = (   0.8065152   0.5937620   0.8699398  )
       936           C   tau( 936) = (   0.8570215   0.5614178   0.8616034  )
       937           H   tau( 937) = (   0.7879404   0.6043044   0.8317453  )
       938           H   tau( 938) = (   0.8152123   0.6306068   0.8918658  )
       939           H   tau( 939) = (   0.8865388   0.5842430   0.8387694  )
       940           H   tau( 940) = (   0.8746207   0.5500496   0.9000665  )
       941           H   tau( 941) = (   0.8482968   0.5242593   0.8401161  )
       942           H   tau( 942) = (   0.7616208   0.5308816   0.8801862  )
       943           O   tau( 943) = (   0.7535643   0.8229291   0.7833516  )
       944           C   tau( 944) = (   0.7584633   0.8600290   0.8260684  )
       945           C   tau( 945) = (   0.8049371   0.8435880   0.8612310  )
       946           H   tau( 946) = (   0.7645171   0.9000614   0.8094628  )
       947           H   tau( 947) = (   0.7210823   0.8598576   0.8487963  )
       948           H   tau( 948) = (   0.8093767   0.8710286   0.8950090  )
       949           H   tau( 949) = (   0.7990522   0.8030198   0.8766574  )
       950           H   tau( 950) = (   0.8423170   0.8432290   0.8384014  )
       951           H   tau( 951) = (   0.7866510   0.8240706   0.7629266  )
       952           O   tau( 952) = (   0.2022605   0.7490650   0.5829484  )
       953           C   tau( 953) = (   0.1816698   0.7964394   0.5593516  )
       954           C   tau( 954) = (   0.1221111   0.7898504   0.5506410  )
       955           H   tau( 955) = (   0.1901962   0.8302919   0.5857390  )
       956           H   tau( 956) = (   0.2022259   0.8029034   0.5212781  )
[...]
      1069           O   tau(1069) = (   0.3000465   0.6298112   0.3889541  )
      1070           C   tau(1070) = (   0.3178970   0.5839762   0.3605702  )
      1071           C   tau(1071) = (   0.3552717   0.6015286   0.3162806  )
      1072           H   tau(1072) = (   0.3379874   0.5569316   0.3884978  )
      1073           H   tau(1073) = (   0.2829200   0.5635269   0.3440666  )
      1074           H   tau(1074) = (   0.3692320   0.5671301   0.2931396  )
      1075           H   tau(1075) = (   0.3351480   0.6295143   0.2892580  )
      1076           H   tau(1076) = (   0.3900568   0.6224764   0.3327050  )
      1077           H   tau(1077) = (   0.3313622   0.6471560   0.4041757  )
      1078           O   tau(1078) = (   0.5671164   0.4089354   0.2025775  )
      1079           C   tau(1079) = (   0.6068628   0.3762072   0.1786149  )
      1080           C   tau(1080) = (   0.6110812   0.3901489   0.1198410  )
      1081           H   tau(1081) = (   0.6449108   0.3827056   0.1992332  )
      1082           H   tau(1082) = (   0.5951720   0.3343653   0.1837631  )
      1083           H   tau(1083) = (   0.6409496   0.3650930   0.0999985  )
      1084           H   tau(1084) = (   0.5724992   0.3846658   0.0998472  )
      1085           H   tau(1085) = (   0.6222701   0.4321734   0.1146134  )
      1086           H   tau(1086) = (   0.5783596   0.4459560   0.1985426  )
      1087           O   tau(1087) = (   0.3762771   0.7810099   0.0995190  )
      1088           C   tau(1088) = (   0.4120928   0.8082524   0.1341630  )
      1089           C   tau(1089) = (   0.3946075   0.8660105   0.1391428  )
      1090           H   tau(1090) = (   0.4121230   0.7882713   0.1730955  )
      1091           H   tau(1091) = (   0.4523132   0.8057036   0.1171409  )
      1092           H   tau(1092) = (   0.4218458   0.8883448   0.1650833  )
      1093           H   tau(1093) = (   0.3935490   0.8852840   0.0998262  )
      1094           H   tau(1094) = (   0.3541354   0.8686122   0.1556900  )
      1095           H   tau(1095) = (   0.3408462   0.7827706   0.1154804  )
      1096           O   tau(1096) = (   0.8066814   0.4465964   0.3441176  )
      1097           C   tau(1097) = (   0.7814316   0.4436331   0.3948994  )
      1098           C   tau(1098) = (   0.7313795   0.4098956   0.3900940  )
      1099           H   tau(1099) = (   0.8094916   0.4263773   0.4237068  )
      1100           H   tau(1100) = (   0.7714987   0.4842648   0.4077184  )
      1101           H   tau(1101) = (   0.7105470   0.4073869   0.4284785  )
      1102           H   tau(1102) = (   0.7041163   0.4268454   0.3602980  )
      1103           H   tau(1103) = (   0.7412038   0.3693485   0.3767528  )
      1104           H   tau(1104) = (   0.8161172   0.4103708   0.3335401  )
      1105           O   tau(1105) = (   0.6055968   0.8902025   0.5872259  )
      1106           C   tau(1106) = (   0.6207760   0.8354886   0.5882782  )
      1107           C   tau(1107) = (   0.5838883   0.8040906   0.5519464  )
      1108           H   tau(1108) = (   0.6624470   0.8320785   0.5753598  )
      1109           H   tau(1109) = (   0.6177299   0.8211552   0.6294996  )
      1110           H   tau(1110) = (   0.5940924   0.7615543   0.5523938  )
      1111           H   tau(1111) = (   0.5421856   0.8087536   0.5644971  )
      1112           H   tau(1112) = (   0.5864993   0.8187428   0.5107509  )
      1113           H   tau(1113) = (   0.6093068   0.9027370   0.5505880  )
      1114           O   tau(1114) = (   0.1004618   0.5341858   0.4785261  )
      1115           C   tau(1115) = (   0.1164986   0.5886055   0.4759883  )
      1116           C   tau(1116) = (   0.1768917   0.5915366   0.4792449  )
      1117           H   tau(1117) = (   0.1017600   0.6060091   0.4386403  )
      1118           H   tau(1118) = (   0.0981704   0.6099278   0.5095050  )
      1119           H   tau(1119) = (   0.1905500   0.6330792   0.4780989  )
      1120           H   tau(1120) = (   0.1912994   0.5729360   0.5161883  )
      1121           H   tau(1121) = (   0.1953114   0.5697586   0.4460032  )
      1122           H   tau(1122) = (   0.1162524   0.5158367   0.4480765  )
      1123           O   tau(1123) = (   0.7190580   0.1229242   0.2697010  )
      1124           C   tau(1124) = (   0.7598732   0.1623409   0.2720612  )
      1125           C   tau(1125) = (   0.8133376   0.1349356   0.2796130  )
      1126           H   tau(1126) = (   0.7591288   0.1857606   0.2351024  )
      1127           H   tau(1127) = (   0.7513098   0.1890197   0.3056594  )
      1128           H   tau(1128) = (   0.8456480   0.1643036   0.2822985  )
      1129           H   tau(1129) = (   0.8132462   0.1106506   0.3160631  )
      1130           H   tau(1130) = (   0.8217312   0.1078082   0.2462628  )
      1131           H   tau(1131) = (   0.7265934   0.1000001   0.2391900  )
      1132           O   tau(1132) = (   0.7653387   0.4816630   0.7950914  )
      1133           C   tau(1133) = (   0.7085819   0.4834276   0.7942680  )
      1134           C   tau(1134) = (   0.6871248   0.4268454   0.7921274  )
      1135           H   tau(1135) = (   0.6945224   0.5043861   0.8300180  )
      1136           H   tau(1136) = (   0.6960300   0.5060511   0.7589898  )
      1137           H   tau(1137) = (   0.6434015   0.4268144   0.7907402  )
      1138           H   tau(1138) = (   0.7023992   0.4058466   0.7568553  )
      1139           H   tau(1139) = (   0.7000960   0.4039820   0.8271644  )
      1140           H   tau(1140) = (   0.7760416   0.4622439   0.8270533  )
      1141           O   tau(1141) = (   0.4994766   0.5597698   0.7758964  )
      1142           C   tau(1142) = (   0.4785490   0.5274958   0.8176762  )
      1143           C   tau(1143) = (   0.4976490   0.5492587   0.8708560  )
      1144           H   tau(1144) = (   0.4348577   0.5276918   0.8152226  )
      1145           H   tau(1145) = (   0.4926703   0.4865095   0.8117908  )
      1146           H   tau(1146) = (   0.4827617   0.5248121   0.9039376  )
      1147           H   tau(1147) = (   0.5414136   0.5500207   0.8724249  )
      1148           H   tau(1148) = (   0.4839854   0.5904795   0.8765768  )
      1149           H   tau(1149) = (   0.4859571   0.5958818   0.7810304  )
      1150           O   tau(1150) = (   0.3832597   0.8632793   0.6723418  )
      1151           C   tau(1151) = (   0.3266781   0.8653356   0.6767485  )
      1152           C   tau(1152) = (   0.3114530   0.8653520   0.7353550  )
      1153           H   tau(1153) = (   0.3121803   0.9013635   0.6565793  )
      1154           H   tau(1154) = (   0.3100172   0.8303328   0.6564719  )
      1155           H   tau(1155) = (   0.2679797   0.8662102   0.7401496  )
      1156           H   tau(1156) = (   0.3271848   0.8297396   0.7554213  )
      1157           H   tau(1157) = (   0.3285447   0.9000968   0.7558304  )
      1158           H   tau(1158) = (   0.3975725   0.8950059   0.6897136  )
      1159           O   tau(1159) = (   0.2482414   0.6689223   0.1956554  )
      1160           C   tau(1160) = (   0.1936244   0.6537613   0.1991563  )
      1161           C   tau(1161) = (   0.1602303   0.6928052   0.1671104  )
      1162           H   tau(1162) = (   0.1892326   0.6129492   0.1839882  )
      1163           H   tau(1163) = (   0.1818613   0.6543284   0.2412898  )
      1164           H   tau(1164) = (   0.1177542   0.6826348   0.1695588  )
      1165           H   tau(1165) = (   0.1658502   0.7336699   0.1818370  )
      1166           H   tau(1166) = (   0.1723154   0.6926704   0.1250092  )
      1167           H   tau(1167) = (   0.2584871   0.6674175   0.1581591  )
      1168           O   tau(1168) = (   0.2624539   0.2749143   0.5182274  )
      1169           C   tau(1169) = (   0.3025232   0.2949521   0.4833267  )
      1170           C   tau(1170) = (   0.3343471   0.3375787   0.5122531  )
      1171           H   tau(1171) = (   0.3281824   0.2618324   0.4706903  )
      1172           H   tau(1172) = (   0.2828848   0.3116576   0.4479828  )
      1173           H   tau(1173) = (   0.3651843   0.3543785   0.4861669  )
      1174           H   tau(1174) = (   0.3081141   0.3699383   0.5257833  )
      1175           H   tau(1175) = (   0.3536078   0.3210376   0.5479462  )
      1176           H   tau(1176) = (   0.2803958   0.2593857   0.5490522  )
      1177           O   tau(1177) = (   0.2866208   0.9003861   0.3415298  )
      1178           C   tau(1178) = (   0.2451106   0.8741576   0.3129976  )
      1179           C   tau(1179) = (   0.2640114   0.8629275   0.2565780  )
      1180           H   tau(1180) = (   0.2347152   0.8371493   0.3339096  )
      1181           H   tau(1181) = (   0.2100310   0.9002958   0.3126197  )
      1182           H   tau(1182) = (   0.2326270   0.8433119   0.2332562  )
      1183           H   tau(1183) = (   0.2754571   0.9000931   0.2364261  )
      1184           H   tau(1184) = (   0.2994512   0.8371886   0.2569067  )
      1185           H   tau(1185) = (   0.3172664   0.8764412   0.3423704  )
      1186           O   tau(1186) = (   0.5535072   0.4025317   0.5508956  )
      1187           C   tau(1187) = (   0.5020828   0.3899873   0.5303217  )
      1188           C   tau(1188) = (   0.5085009   0.3566868   0.4801578  )
      1189           H   tau(1189) = (   0.4794474   0.3683868   0.5609166  )
      1190           H   tau(1190) = (   0.4813038   0.4274475   0.5214395  )
      1191           H   tau(1191) = (   0.4695260   0.3469061   0.4628677  )
      1192           H   tau(1192) = (   0.5322300   0.3781798   0.4502687  )
      1193           H   tau(1193) = (   0.5297666   0.3194015   0.4888846  )
      1194           H   tau(1194) = (   0.5712498   0.3689919   0.5594688  )
      1195           O   tau(1195) = (   0.4929755   0.4636031   0.6382502  )
      1196           C   tau(1196) = (   0.5155883   0.5144064   0.6267256  )
      1197           C   tau(1197) = (   0.5745777   0.5075138   0.6149244  )
      1198           H   tau(1198) = (   0.4945172   0.5318980   0.5925929  )
      1199           H   tau(1199) = (   0.5097157   0.5402899   0.6615032  )
      1200           H   tau(1200) = (   0.5933952   0.5461062   0.6065468  )
      1201           H   tau(1201) = (   0.5950550   0.4888755   0.6488608  )
      1202           H   tau(1202) = (   0.5805415   0.4811817   0.5804333  )
      1203           H   tau(1203) = (   0.4976372   0.4412364   0.6067667  )
      1204           O   tau(1204) = (   0.6246044   0.7823900   0.2451404  )
      1205           C   tau(1205) = (   0.6228574   0.8389736   0.2406262  )
      1206           C   tau(1206) = (   0.6622154   0.8565864   0.1981143  )
      1207           H   tau(1207) = (   0.5820613   0.8511419   0.2304972  )
      1208           H   tau(1208) = (   0.6333228   0.8562035   0.2794532  )
      1209           H   tau(1209) = (   0.6623637   0.9001488   0.1941201  )
      1210           H   tau(1210) = (   0.7027114   0.8431650   0.2080299  )
      1211           H   tau(1211) = (   0.6520985   0.8389453   0.1593198  )
      1212           H   tau(1212) = (   0.6143812   0.7675187   0.2106797  )
      1213           O   tau(1213) = (   0.3214810   0.4286936   0.4594347  )
      1214           C   tau(1214) = (   0.3099602   0.4045871   0.4093221  )
      1215           C   tau(1215) = (   0.3214717   0.4444027   0.3651777  )
      1216           H   tau(1216) = (   0.3344066   0.3685546   0.4049611  )
      1217           H   tau(1217) = (   0.2677872   0.3929561   0.4090203  )
      1218           H   tau(1218) = (   0.3123198   0.4272715   0.3259805  )
      1219           H   tau(1219) = (   0.2977028   0.4807902   0.3705974  )
      1220           H   tau(1220) = (   0.3635682   0.4564908   0.3657565  )
      1221           H   tau(1221) = (   0.3592382   0.4380523   0.4595834  )
      1222           O   tau(1222) = (   0.1791676   0.8637384   0.4296648  )
      1223           C   tau(1223) = (   0.1303639   0.8380780   0.4160681  )
      1224           C   tau(1224) = (   0.1362050   0.8121639   0.3616543  )
      1225           H   tau(1225) = (   0.1208781   0.8084301   0.4468254  )
      1226           H   tau(1226) = (   0.0986632   0.8682221   0.4154970  )
      1227           H   tau(1227) = (   0.0989714   0.7925865   0.3496528  )
      1228           H   tau(1228) = (   0.1468840   0.8419808   0.3314005  )
      1229           H   tau(1229) = (   0.1682856   0.7823432   0.3620186  )
      1230           H   tau(1230) = (   0.2068569   0.8364448   0.4309205  )
      1231           O   tau(1231) = (   0.6821539   0.2205413   0.6498760  )
      1232           C   tau(1232) = (   0.6258284   0.2208325   0.6426318  )
      1233           C   tau(1233) = (   0.6091890   0.2742972   0.6195845  )
      1234           H   tau(1234) = (   0.6147860   0.1879342   0.6159718  )
      1235           H   tau(1235) = (   0.6069195   0.2142206   0.6815248  )
      1236           H   tau(1236) = (   0.5658191   0.2760952   0.6141558  )
      1237           H   tau(1237) = (   0.6214970   0.3070112   0.6459794  )
      1238           H   tau(1238) = (   0.6285013   0.2812126   0.5808832  )
      1239           H   tau(1239) = (   0.6985322   0.2255594   0.6149507  )
      1240           O   tau(1240) = (   0.4233534   0.1342226   0.5502175  )
      1241           C   tau(1241) = (   0.4665754   0.1668869   0.5672478  )
      1242           C   tau(1242) = (   0.4972660   0.1379183   0.6106693  )
      1243           H   tau(1243) = (   0.4921764   0.1756082   0.5328456  )
      1244           H   tau(1244) = (   0.4502339   0.2045417   0.5823807  )
      1245           H   tau(1245) = (   0.5305090   0.1623629   0.6251961  )
      1246           H   tau(1246) = (   0.4710018   0.1283111   0.6443780  )
      1247           H   tau(1247) = (   0.5132087   0.0999550   0.5957298  )
      1248           H   tau(1248) = (   0.4383896   0.1012651   0.5360425  )
      1249           O   tau(1249) = (   0.3253262   0.6883894   0.7150058  )
      1250           C   tau(1250) = (   0.3114442   0.6664011   0.6645189  )
      1251           C   tau(1251) = (   0.3620818   0.6507985   0.6352116  )
      1252           H   tau(1252) = (   0.2854353   0.6317728   0.6707969  )
      1253           H   tau(1253) = (   0.2892442   0.6966218   0.6419844  )
      1254           H   tau(1254) = (   0.3527957   0.6343206   0.5957667  )
      1255           H   tau(1255) = (   0.3883572   0.6854825   0.6302110  )
      1256           H   tau(1256) = (   0.3846230   0.6209277   0.6579757  )
      1257           H   tau(1257) = (   0.3442456   0.6609068   0.7350052  )
      1258           O   tau(1258) = (   0.3786185   0.1505661   0.3866655  )
      1259           C   tau(1259) = (   0.4251807   0.1754893   0.4075441  )
      1260           C   tau(1260) = (   0.4671104   0.1331310   0.4182304  )
      1261           H   tau(1261) = (   0.4395456   0.2051181   0.3787210  )
      1262           H   tau(1262) = (   0.4143134   0.1961463   0.4445458  )
      1263           H   tau(1263) = (   0.5033392   0.1509751   0.4350446  )
      1264           H   tau(1264) = (   0.4519006   0.1030301   0.4461765  )
      1265           H   tau(1265) = (   0.4776515   0.1120514   0.3813101  )
      1266           H   tau(1266) = (   0.3885560   0.1330974   0.3533593  )
      1267           O   tau(1267) = (   0.1997361   0.2164891   0.5675518  )
      1268           C   tau(1268) = (   0.2222802   0.1674815   0.5853041  )
      1269           C   tau(1269) = (   0.1853050   0.1424362   0.6261953  )
      1270           H   tau(1270) = (   0.2279467   0.1411564   0.5508096  )
      1271           H   tau(1271) = (   0.2613962   0.1759340   0.6029796  )
      1272           H   tau(1272) = (   0.2018928   0.1048559   0.6412358  )
      1273           H   tau(1273) = (   0.1789422   0.1695946   0.6599640  )
      1274           H   tau(1274) = (   0.1459525   0.1344323   0.6087054  )
      1275           H   tau(1275) = (   0.1654140   0.2083851   0.5511343  )
      1276           O   tau(1276) = (   0.5778819   0.5400245   0.1318658  )
      1277           C   tau(1277) = (   0.5243487   0.5394540   0.1508130  )
      1278           C   tau(1278) = (   0.5086985   0.5955525   0.1673826  )
      1279           H   tau(1279) = (   0.4982321   0.5244139   0.1190844  )
      1280           H   tau(1280) = (   0.5221004   0.5120940   0.1848764  )
      1281           H   tau(1281) = (   0.4677949   0.5963745   0.1828706  )
      1282           H   tau(1282) = (   0.5358150   0.6106762   0.1982752  )
      1283           H   tau(1283) = (   0.5114368   0.6231038   0.1334415  )
      1284           H   tau(1284) = (   0.5792109   0.5637624   0.1010769  )
      1285           O   tau(1285) = (   0.3303977   0.1296371   0.7624008  )
      1286           C   tau(1286) = (   0.2815246   0.1418100   0.7361640  )
      1287           C   tau(1287) = (   0.2804184   0.2008941   0.7229590  )
      1288           H   tau(1288) = (   0.2783902   0.1174035   0.6999772  )
      1289           H   tau(1289) = (   0.2485529   0.1313496   0.7629478  )
      1290           H   tau(1290) = (   0.2428852   0.2117533   0.7032868  )
      1291           H   tau(1291) = (   0.2847979   0.2249396   0.7593048  )
      1292           H   tau(1292) = (   0.3137166   0.2115342   0.6965661  )
      1293           H   tau(1293) = (   0.3593628   0.1382572   0.7379074  )
      1294           O   tau(1294) = (   0.4022589   0.2824256   0.8700576  )
      1295           C   tau(1295) = (   0.3539756   0.2534113   0.8628453  )
      1296           C   tau(1296) = (   0.3672914   0.1970707   0.8450983  )
      1297           H   tau(1297) = (   0.3317112   0.2533344   0.9005186  )
      1298           H   tau(1298) = (   0.3300104   0.2739004   0.8325172  )
      1299           H   tau(1299) = (   0.3308421   0.1738009   0.8384935  )
      1300           H   tau(1300) = (   0.3906039   0.1976472   0.8080230  )
      1301           H   tau(1301) = (   0.3917314   0.1766785   0.8751884  )
      1302           H   tau(1302) = (   0.4228185   0.2643646   0.8977038  )

     number of k points=    14  Methfessel-Paxton smearing, width (Ry)=  0.0200
                       cart. coord. in units 2pi/alat
        k(    1) = (   0.0000000   0.0000000   0.0000000), wk =   0.0740741
        k(    2) = (   0.0000000   0.0000000   0.3333333), wk =   0.1481481
        k(    3) = (   0.0000000   0.3333333   0.3333333), wk =   0.1481481
        k(    4) = (   0.3333333   0.3333333   0.3333333), wk =   0.1481481
        k(    5) = (   0.3333333   0.0000000   0.0000000), wk =   0.1481481
        k(    6) = (   0.0000000   0.3333333   0.0000000), wk =   0.1481481
        k(    7) = (   0.0000000  -0.3333333   0.3333333), wk =   0.1481481
        k(    8) = (   0.3333333   0.0000000  -0.3333333), wk =   0.1481481
        k(    9) = (  -0.3333333   0.0000000  -0.3333333), wk =   0.1481481
        k(   10) = (   0.3333333  -0.3333333   0.0000000), wk =   0.1481481
        k(   11) = (  -0.3333333  -0.3333333   0.0000000), wk =   0.1481481
        k(   12) = (  -0.3333333  -0.3333333   0.3333333), wk =   0.1481481
        k(   13) = (  -0.3333333   0.3333333  -0.3333333), wk =   0.1481481
        k(   14) = (   0.3333333  -0.3333333  -0.3333333), wk =   0.1481481

     Dense  grid: 10674553 G-vectors     FFT dimensions: ( 288, 288, 288)

     Smooth grid:  5037273 G-vectors     FFT dimensions: ( 216, 216, 216)

     Estimated max dynamical RAM per process >      37.70 GB

     Estimated total dynamical RAM >     753.91 GB

     Check: negative core charge=   -0.000004

     Initial potential from superposition of free atoms

     starting charge    3287.9874, renormalised to    3288.0000

     negative rho (up, down):  5.325E-03 0.000E+00
     Starting wfcs are 2604 randomized atomic wfcs
