
     Program PWSCF v.7.2 starts on 18Jun2025 at 10:58:38 

     This program is part of the open-source Quantum ESPRESSO suite
     for quantum simulation of materials; please cite
         "P. Giannozzi et al., J. Phys.:Condens. Matter 21 395502 (2009);
         "P. Giannozzi et al., J. Phys.:Condens. Matter 29 465901 (2017);
         "P. Giannozzi et al., J. Chem. Phys. 152 154105 (2020);
          URL http://www.quantum-espresso.org", 
     in publications or presentations arising from this work. More details at
     http://www.quantum-espresso.org/quote

     Parallel version (MPI), running on    20 processors

     MPI processes distributed on     1 nodes
     252763 MiB available memory on the printing compute node when the environment starts

     Reading input from pw4.in
Warning: card &CELL ignored
Warning: card / ignored
Warning: card &FCP ignored
Warning: card / ignored
Warning: card &RISM ignored
Warning: card / ignored

     Current dimensions of program PWSCF are:
     Max number of different atomic species (ntypx) = 10
     Max number of k-points (npk) =  40000
     Max angular momentum in pseudopotentials (lmaxx) =  4
     file N.pbe-n-kjpaw_psl.1.0.0.UPF: wavefunction(s)  2S renormalized
     file C.pbe-n-kjpaw_psl.1.0.0.UPF: wavefunction(s)  2S 2P renormalized
     file H.pbe-kjpaw_psl.1.0.0.UPF: wavefunction(s)  1S renormalized
     file Cl.pbe-n-kjpaw_psl.1.0.0.UPF: wavefunction(s)  3S 3P renormalized

     R & G space division:  proc/nbgrp/npool/nimage =      20
     Subspace diagonalization in iterative solution of the eigenvalue problem:
     a serial algorithm will be used


     Parallelization info
     --------------------
     sticks:   dense  smooth     PW     G-vecs:    dense   smooth      PW
     Min        3411    1364    340               669939   169462   21182
     Max        3413    1365    341               669940   169465   21187
     Sum       68237   27281   6817             13398795  3389267  423701

     Using Slab Decomposition



     bravais-lattice index     =            0
     lattice parameter (alat)  =      37.7945  a.u.
     unit-cell volume          =   53986.6760 (a.u.)^3
     number of atoms/cell      =           20
     number of atomic types    =            4
     number of electrons       =        52.00
     number of Kohn-Sham states=           31
     kinetic-energy cutoff     =      60.0000  Ry
     charge density cutoff     =     600.0000  Ry
     scf convergence threshold =      1.0E-06
     mixing beta               =       0.7000
     number of iterations used =            8  plain     mixing
     energy convergence thresh.=      1.0E-04
     force convergence thresh. =      1.0E-03
     Exchange-correlation= SLA  PW   PBX  PBC
                           (   1   4   3   4   0   0   0)
     nstep                     =           50


     celldm(1)=  37.794522  celldm(2)=   0.000000  celldm(3)=   0.000000
     celldm(4)=   0.000000  celldm(5)=   0.000000  celldm(6)=   0.000000

     crystal axes: (cart. coord. in units of alat)
               a(1) = (   1.000000   0.000000   0.000000 )  
               a(2) = (   0.000000   1.000000   0.000000 )  
               a(3) = (   0.000000   0.000000   1.000000 )  

     reciprocal axes: (cart. coord. in units 2 pi/alat)
               b(1) = (  1.000000  0.000000  0.000000 )  
               b(2) = (  0.000000  1.000000  0.000000 )  
               b(3) = (  0.000000  0.000000  1.000000 )  


     PseudoPot. # 1 for N  read from file:
     /home/ebarquero/practicas/pseudo/N.pbe-n-kjpaw_psl.1.0.0.UPF
     MD5 check sum: 14c48229446f9f2d411169a3abcbc3fa
     Pseudo is Projector augmented-wave + core cor, Zval =  5.0
     Generated using &quot;atomic&quot; code by A. Dal Corso  v.6.3
     Shape of augmentation charge: PSQ
     Using radial grid of 1085 points,  4 beta functions with: 
                l(1) =   0
                l(2) =   0
                l(3) =   1
                l(4) =   1
     Q(r) pseudized with 0 coefficients 


     PseudoPot. # 2 for C  read from file:
     /home/ebarquero/practicas/pseudo/C.pbe-n-kjpaw_psl.1.0.0.UPF
     MD5 check sum: 5f16ad9a65e90284d1d834d4ab3b0f7d
     Pseudo is Projector augmented-wave + core cor, Zval =  4.0
     Generated using &quot;atomic&quot; code by A. Dal Corso  v.6.3
     Shape of augmentation charge: PSQ
     Using radial grid of 1073 points,  4 beta functions with: 
                l(1) =   0
                l(2) =   0
                l(3) =   1
                l(4) =   1
     Q(r) pseudized with 0 coefficients 


     PseudoPot. # 3 for H  read from file:
     /home/ebarquero/practicas/pseudo/H.pbe-kjpaw_psl.1.0.0.UPF
     MD5 check sum: d81a744832360e4a8af0b0b5b123bc2a
     Pseudo is Projector augmented-wave, Zval =  1.0
     Generated using &quot;atomic&quot; code by A. Dal Corso  v.6.3MaX
     Shape of augmentation charge: PSQ
     Using radial grid of  929 points,  2 beta functions with: 
                l(1) =   0
                l(2) =   0
     Q(r) pseudized with 0 coefficients 


     PseudoPot. # 4 for Cl read from file:
     /home/ebarquero/practicas/pseudo/Cl.pbe-n-kjpaw_psl.1.0.0.UPF
     MD5 check sum: 530da96d25dcb7781b0586ca00827062
     Pseudo is Projector augmented-wave + core cor, Zval =  7.0
     Generated using &quot;atomic&quot; code by A. Dal Corso  v.6.3
     Shape of augmentation charge: PSQ
     Using radial grid of 1157 points,  6 beta functions with: 
                l(1) =   0
                l(2) =   0
                l(3) =   1
                l(4) =   1
                l(5) =   2
                l(6) =   2
     Q(r) pseudized with 0 coefficients 


     atomic species   valence    mass     pseudopotential
        N              5.00    14.00700     N ( 1.00)
        C              4.00    12.01100     C ( 1.00)
        H              1.00     1.00800     H ( 1.00)
        Cl             7.00    35.45000     Cl( 1.00)

     No symmetry found



   Cartesian axes

     site n.     atom                  positions (alat units)
         1           N   tau(   1) = (   0.4784350   0.4983700   0.4822825  )
         2           N   tau(   2) = (   0.5840800   0.4834250   0.4981975  )
         3           C   tau(   3) = (   0.4086850   0.4849100   0.4683775  )
         4           C   tau(   4) = (   0.5267500   0.4522000   0.4838175  )
         5           C   tau(   5) = (   0.5053200   0.5601200   0.4958775  )
         6           C   tau(   6) = (   0.5722200   0.5506600   0.5059525  )
         7           C   tau(   7) = (   0.3692350   0.4695750   0.5314475  )
         8           C   tau(   8) = (   0.6484800   0.4509850   0.5045475  )
         9           H   tau(   9) = (   0.3870500   0.5281950   0.4426725  )
        10           H   tau(  10) = (   0.4058600   0.4424850   0.4338175  )
        11           H   tau(  11) = (   0.5205200   0.3993350   0.4751075  )
        12           H   tau(  12) = (   0.4726500   0.6026750   0.4965575  )
        13           H   tau(  13) = (   0.6136500   0.5826400   0.5177475  )
        14           H   tau(  14) = (   0.3900550   0.4260000   0.5572075  )
        15           H   tau(  15) = (   0.3169150   0.4591950   0.5193225  )
        16           H   tau(  16) = (   0.3709150   0.5118400   0.5661825  )
        17           H   tau(  17) = (   0.6434600   0.3973250   0.4954175  )
        18           H   tau(  18) = (   0.6830850   0.4722900   0.4679675  )
        19           H   tau(  19) = (   0.6677300   0.4589100   0.5551025  )
        20           Cl  tau(  20) = (   0.4995640   0.3332150   0.4902400  )

     number of k points=     1  Methfessel-Paxton smearing, width (Ry)=  0.0200
                       cart. coord. in units 2pi/alat
        k(    1) = (   0.0000000   0.0000000   0.0000000), wk =   2.0000000

     Dense  grid: 13398795 G-vectors     FFT dimensions: ( 300, 300, 300)

     Smooth grid:  3389267 G-vectors     FFT dimensions: ( 192, 192, 192)

     Estimated max dynamical RAM per process >       2.64 GB

     Estimated total dynamical RAM >      52.81 GB

     Initial potential from superposition of free atoms

     starting charge      51.9996, renormalised to      52.0000

     negative rho (up, down):  5.088E-04 0.000E+00
     Starting wfcs are   47 randomized atomic wfcs
     Checking if some PAW data can be deallocated... 

     total cpu time spent up to now is       49.6 secs

     Self-consistent Calculation

     iteration #  1     ecut=    60.00 Ry     beta= 0.70
     Davidson diagonalization with overlap
     ethr =  1.00E-02,  avg # of iterations =  3.0

     negative rho (up, down):  6.992E-04 0.000E+00

     total cpu time spent up to now is      100.1 secs

     total energy              =    -258.89580699 Ry
     estimated scf accuracy    <       1.84309599 Ry

     iteration #  2     ecut=    60.00 Ry     beta= 0.70
     Davidson diagonalization with overlap
     ethr =  3.54E-03,  avg # of iterations =  5.0

     negative rho (up, down):  8.206E-04 0.000E+00

     total cpu time spent up to now is      151.0 secs

     total energy              =    -259.26014422 Ry
     estimated scf accuracy    <       0.32479376 Ry

     iteration #  3     ecut=    60.00 Ry     beta= 0.70
     Davidson diagonalization with overlap
     ethr =  6.25E-04,  avg # of iterations =  4.0

     negative rho (up, down):  8.780E-04 0.000E+00

     total cpu time spent up to now is      200.7 secs

     total energy              =    -259.31822475 Ry
     estimated scf accuracy    <       0.01673363 Ry

     iteration #  4     ecut=    60.00 Ry     beta= 0.70
     Davidson diagonalization with overlap
     ethr =  3.22E-05,  avg # of iterations = 11.0

     negative rho (up, down):  8.963E-04 0.000E+00

     total cpu time spent up to now is      253.3 secs

     total energy              =    -259.32071751 Ry
     estimated scf accuracy    <       0.00844163 Ry

     iteration #  5     ecut=    60.00 Ry     beta= 0.70
     Davidson diagonalization with overlap
     ethr =  1.62E-05,  avg # of iterations =  4.0

     negative rho (up, down):  8.995E-04 0.000E+00

     total cpu time spent up to now is      302.9 secs

     total energy              =    -259.32248391 Ry
     estimated scf accuracy    <       0.00104219 Ry

     iteration #  6     ecut=    60.00 Ry     beta= 0.70
     Davidson diagonalization with overlap
     ethr =  2.00E-06,  avg # of iterations =  8.0

     negative rho (up, down):  9.021E-04 0.000E+00

     total cpu time spent up to now is      353.3 secs

     total energy              =    -259.32269913 Ry
     estimated scf accuracy    <       0.00010206 Ry

     iteration #  7     ecut=    60.00 Ry     beta= 0.70
     Davidson diagonalization with overlap
     ethr =  1.96E-07,  avg # of iterations =  2.0

     negative rho (up, down):  9.032E-04 0.000E+00

     total cpu time spent up to now is      403.1 secs

     total energy              =    -259.32272676 Ry
     estimated scf accuracy    <       0.00001132 Ry

     iteration #  8     ecut=    60.00 Ry     beta= 0.70
     Davidson diagonalization with overlap
     ethr =  2.18E-08,  avg # of iterations =  2.0

     negative rho (up, down):  9.040E-04 0.000E+00

     total cpu time spent up to now is      452.4 secs

     total energy              =    -259.32272822 Ry
     estimated scf accuracy    <       0.00000182 Ry

     iteration #  9     ecut=    60.00 Ry     beta= 0.70
     Davidson diagonalization with overlap
     ethr =  3.50E-09,  avg # of iterations =  2.0

     negative rho (up, down):  9.042E-04 0.000E+00

     total cpu time spent up to now is      500.7 secs

     End of self-consistent calculation

          k = 0.0000 0.0000 0.0000 (423701 PWs)   bands (ev):

   -26.8450 -23.9749 -20.2652 -19.3460 -18.3485 -17.8000 -16.5177 -15.7529
   -14.6626 -13.7555 -12.4473 -12.0415 -11.7906 -11.5862 -11.0924 -11.0146
   -10.7157 -10.0927  -9.6667  -9.2927  -8.6355  -7.4746  -6.5544  -5.2065
    -5.1493  -4.0615  -1.0437  -1.0069  -0.6920  -0.4259  -0.1051

     the Fermi energy is    -2.4124 ev

!    total energy              =    -259.32272857 Ry
     total all-electron energy =     -1612.173446 Ry
     estimated scf accuracy    <       0.00000016 Ry
     smearing contrib. (-TS)   =       0.00000000 Ry
     internal energy E=F+TS    =    -259.32272857 Ry

     The total energy is F=E-TS. E is the sum of the following terms:
     one-electron contribution =    -833.56256036 Ry
     hartree contribution      =     423.13106088 Ry
     xc contribution           =     -58.21233087 Ry
     ewald contribution        =     307.71805403 Ry
     one-center paw contrib.   =     -98.39695225 Ry

     convergence has been achieved in   9 iterations

     negative rho (up, down):  9.042E-04 0.000E+00

     Forces acting on atoms (cartesian axes, Ry/au):

     atom    1 type  1   force =     0.01212838    0.00655288   -0.00105159
     atom    2 type  1   force =    -0.01123149    0.00456800    0.00416701
     atom    3 type  2   force =    -0.02724781   -0.01097405   -0.00597651
     atom    4 type  2   force =     0.04395728    0.16267928   -0.02601238
     atom    5 type  2   force =     0.00471268    0.01290160    0.00623249
     atom    6 type  2   force =     0.00240731    0.01661660    0.00608353
     atom    7 type  2   force =     0.00213308   -0.00038302    0.00971593
     atom    8 type  2   force =     0.00849353   -0.00178176   -0.00111152
     atom    9 type  3   force =     0.00434251    0.00619064   -0.00276299
     atom   10 type  3   force =     0.00515820   -0.00291054   -0.00016613
     atom   11 type  3   force =     0.01721469    0.00760064   -0.03700352
     atom   12 type  3   force =     0.00307191    0.02104084    0.00398936
     atom   13 type  3   force =     0.00140509    0.02240280    0.00435701
     atom   14 type  3   force =     0.00134687   -0.00561405   -0.00185518
     atom   15 type  3   force =    -0.00395753   -0.00041782   -0.00207197
     atom   16 type  3   force =    -0.00255794    0.00576867    0.00346176
     atom   17 type  3   force =    -0.00640435   -0.00128829   -0.00005613
     atom   18 type  3   force =     0.00627226    0.00098620   -0.00181412
     atom   19 type  3   force =     0.00497488   -0.00067183    0.00382361
     atom   20 type  4   force =    -0.06621956   -0.24326678    0.03805134
     The non-local contrib.  to forces
     atom    1 type  1   force =     0.15512873    0.05153362    0.05401036
     atom    2 type  1   force =    -0.08093544    0.07122800    0.03216279
     atom    3 type  2   force =     0.37660656    0.11896612    0.11974468
     atom    4 type  2   force =     0.11344465    1.08347243    0.26101408
     atom    5 type  2   force =    -0.14182724   -0.27307313   -0.04752377
     atom    6 type  2   force =     0.07704738   -0.30267578   -0.01859313
     atom    7 type  2   force =     0.01911023    0.06723723   -0.07949016
     atom    8 type  2   force =    -0.35071079    0.23491807   -0.03157653
     atom    9 type  3   force =     0.03196305   -0.05873181    0.03655208
     atom   10 type  3   force =     0.00508624    0.06092039    0.04876755
     atom   11 type  3   force =     0.00243993    0.05193451    0.01593963
     atom   12 type  3   force =     0.05006343   -0.06515340   -0.00101213
     atom   13 type  3   force =    -0.06340829   -0.04888166   -0.01798312
     atom   14 type  3   force =    -0.02870944    0.06107732   -0.03593467
     atom   15 type  3   force =     0.07172428    0.01491458    0.01534764
     atom   16 type  3   force =    -0.00182379   -0.05642314   -0.04822891
     atom   17 type  3   force =     0.00629645    0.07767177    0.01273965
     atom   18 type  3   force =    -0.04913445   -0.02872194    0.05145889
     atom   19 type  3   force =    -0.02754938   -0.00990735   -0.07110877
     atom   20 type  4   force =    -0.02850593   -0.12023252    0.00985264
     The ionic contribution  to forces
     atom    1 type  1   force =    -5.10622753    2.00160082   -2.24120350
     atom    2 type  1   force =     7.93741996   -0.60288683    0.71032840
     atom    3 type  2   force =    -7.18865189    0.30477512   -4.34308087
     atom    4 type  2   force =     0.43979476   -7.03183542   -2.07389501
     atom    5 type  2   force =    -1.95596010   11.00321402    0.67687343
     atom    6 type  2   force =     5.71612393    9.55752872    2.05361088
     atom    7 type  2   force =    -6.63867675   -0.83841302    4.02149156
     atom    8 type  2   force =     8.84217256   -3.01262260    0.81934679
     atom    9 type  3   force =    -2.21487589    2.37756188   -2.05380747
     atom   10 type  3   force =    -1.41137658   -2.11399205   -2.66093281
     atom   11 type  3   force =     0.33342682   -2.00653913   -1.11735134
     atom   12 type  3   force =    -1.66098182    3.57970667    0.11279456
     atom   13 type  3   force =     2.63920611    2.81452525    0.82218669
     atom   14 type  3   force =    -0.40376913   -2.29256015    2.11051158
     atom   15 type  3   force =    -3.43094453   -0.59062412   -0.11048080
     atom   16 type  3   force =    -1.16712935    2.00044633    2.44986360
     atom   17 type  3   force =     1.33768105   -3.08903001   -0.34050462
     atom   18 type  3   force =     3.01158823    0.68063959   -1.85218866
     atom   19 type  3   force =     2.23736438   -0.01415772    2.80181416
     atom   20 type  4   force =    -1.31618421  -12.72733736    0.21462342
     The local contribution  to forces
     atom    1 type  1   force =     4.96245705   -2.04493375    2.18647729
     atom    2 type  1   force =    -7.86521396    0.53700829   -0.73720617
     atom    3 type  2   force =     6.79169470   -0.43258405    4.22054634
     atom    4 type  2   force =    -0.50784432    6.12565975    1.79078719
     atom    5 type  2   force =     2.09805541  -10.71904665   -0.62386661
     atom    6 type  2   force =    -5.78685663   -9.24123052   -2.02848509
     atom    7 type  2   force =     6.62219470    0.77209380   -3.93423208
     atom    8 type  2   force =    -8.48967742    2.78033430   -0.78950270
     atom    9 type  3   force =     2.18723986   -2.31261136    2.01447688
     atom   10 type  3   force =     1.41141407    2.05016553    2.61196142
     atom   11 type  3   force =    -0.31862985    1.96216937    1.06436442
     atom   12 type  3   force =     1.61399113   -3.49351313   -0.10780047
     atom   13 type  3   force =    -2.57440487   -2.74324552   -0.79985358
     atom   14 type  3   force =     0.43379662    2.22586410   -2.07641429
     atom   15 type  3   force =     3.35523356    0.57530068    0.09305960
     atom   16 type  3   force =     1.16637532   -1.93823142   -2.39816770
     atom   17 type  3   force =    -1.35036128    3.01009912    0.32771174
     atom   18 type  3   force =    -2.95620254   -0.65092856    1.79893710
     atom   19 type  3   force =    -2.20484869    0.02340399   -2.72691277
     atom   20 type  4   force =     1.27430513   12.58762003   -0.18425392
     The core correction contribution to forces
     atom    1 type  1   force =     0.00064374   -0.00118499   -0.00039513
     atom    2 type  1   force =    -0.00207840   -0.00050814   -0.00106801
     atom    3 type  2   force =    -0.00695866   -0.00197445   -0.00326648
     atom    4 type  2   force =    -0.00134654   -0.01436125   -0.00396775
     atom    5 type  2   force =     0.00443889    0.00190262    0.00071982
     atom    6 type  2   force =    -0.00386495    0.00307549   -0.00045459
     atom    7 type  2   force =    -0.00062207   -0.00122796    0.00198591
     atom    8 type  2   force =     0.00675856   -0.00430597    0.00062819
     atom    9 type  3   force =     0.00000000    0.00000000    0.00000000
     atom   10 type  3   force =     0.00000000    0.00000000    0.00000000
     atom   11 type  3   force =     0.00000000    0.00000000    0.00000000
     atom   12 type  3   force =     0.00000000    0.00000000    0.00000000
     atom   13 type  3   force =     0.00000000    0.00000000    0.00000000
     atom   14 type  3   force =     0.00000000    0.00000000    0.00000000
     atom   15 type  3   force =     0.00000000    0.00000000    0.00000000
     atom   16 type  3   force =     0.00000000    0.00000000    0.00000000
     atom   17 type  3   force =     0.00000000    0.00000000    0.00000000
     atom   18 type  3   force =     0.00000000    0.00000000    0.00000000
     atom   19 type  3   force =     0.00000000    0.00000000    0.00000000
     atom   20 type  4   force =     0.00419518    0.01587722   -0.00227460
     The Hubbard contrib.    to forces
     atom    1 type  1   force =     0.00000000    0.00000000    0.00000000
     atom    2 type  1   force =     0.00000000    0.00000000    0.00000000
     atom    3 type  2   force =     0.00000000    0.00000000    0.00000000
     atom    4 type  2   force =     0.00000000    0.00000000    0.00000000
     atom    5 type  2   force =     0.00000000    0.00000000    0.00000000
     atom    6 type  2   force =     0.00000000    0.00000000    0.00000000
     atom    7 type  2   force =     0.00000000    0.00000000    0.00000000
     atom    8 type  2   force =     0.00000000    0.00000000    0.00000000
     atom    9 type  3   force =     0.00000000    0.00000000    0.00000000
     atom   10 type  3   force =     0.00000000    0.00000000    0.00000000
     atom   11 type  3   force =     0.00000000    0.00000000    0.00000000
     atom   12 type  3   force =     0.00000000    0.00000000    0.00000000
     atom   13 type  3   force =     0.00000000    0.00000000    0.00000000
     atom   14 type  3   force =     0.00000000    0.00000000    0.00000000
     atom   15 type  3   force =     0.00000000    0.00000000    0.00000000
     atom   16 type  3   force =     0.00000000    0.00000000    0.00000000
     atom   17 type  3   force =     0.00000000    0.00000000    0.00000000
     atom   18 type  3   force =     0.00000000    0.00000000    0.00000000
     atom   19 type  3   force =     0.00000000    0.00000000    0.00000000
     atom   20 type  4   force =     0.00000000    0.00000000    0.00000000
     The SCF correction term to forces
     atom    1 type  1   force =     0.00012096   -0.00046106    0.00005701
     atom    2 type  1   force =    -0.00042905   -0.00027156   -0.00005239
     atom    3 type  2   force =     0.00005607   -0.00015503    0.00007744
     atom    4 type  2   force =    -0.00009668   -0.00025447    0.00004673
     atom    5 type  2   force =     0.00000030   -0.00009350    0.00002723
     atom    6 type  2   force =    -0.00004782   -0.00007955    0.00000308
     atom    7 type  2   force =     0.00012157   -0.00007131   -0.00004169
     atom    8 type  2   force =    -0.00005480   -0.00010380   -0.00000966
     atom    9 type  3   force =     0.00001007   -0.00002631    0.00001314
     atom   10 type  3   force =     0.00002906   -0.00000265    0.00003533
     atom   11 type  3   force =    -0.00002762    0.00003765    0.00004139
     atom   12 type  3   force =    -0.00000624    0.00000246    0.00000501
     atom   13 type  3   force =     0.00000672    0.00000650    0.00000463
     atom   14 type  3   force =     0.00002341    0.00000645   -0.00002019
     atom   15 type  3   force =     0.00002375   -0.00000720   -0.00000079
     atom   16 type  3   force =     0.00001446   -0.00002135   -0.00000762
     atom   17 type  3   force =    -0.00002600   -0.00002740   -0.00000528
     atom   18 type  3   force =     0.00001560   -0.00000113   -0.00002384
     atom   19 type  3   force =     0.00000315   -0.00000900    0.00002861
     atom   20 type  4   force =    -0.00003514    0.00080760    0.00010140

     Total force =     0.314818     Total SCF correction =     0.001153


     Computing stress (Cartesian axis) and pressure


     negative rho (up, down):  9.042E-04 0.000E+00
          total   stress  (Ry/bohr**3)                   (kbar)     P=        1.55
   0.00000340   0.00000580  -0.00000026            0.50        0.85       -0.04
   0.00000580   0.00002694  -0.00000003            0.85        3.96       -0.00
  -0.00000026  -0.00000003   0.00000127           -0.04       -0.00        0.19


     BFGS Geometry Optimization
     Energy error            =      0.0E+00 Ry
     Gradient error          =      2.4E-01 Ry/Bohr

     number of scf cycles    =   1
     number of bfgs steps    =   0

     energy             new  =    -259.3227285676 Ry

     new trust radius        =       0.2549738413 bohr
     new conv_thr            =       0.0000010000 Ry


ATOMIC_POSITIONS (angstrom)
N             9.5751180603        9.9708676364        9.6450935238
N            11.6756565540        9.6709172795        9.9661550854
C             8.1592810821        9.6923927802        9.3643873688
C            10.5582611899        9.1300861662        9.6625848412
C            10.1088938405       11.2092272338        9.9208480917
C            11.4456738935       11.0219931258       10.1222692652
C             7.3858287799        9.3912973149       10.6340914489
C            12.9740945805        9.0187571335       10.0903618075
H             7.7432979578       10.5671759449        8.8519878912
H             8.1199296017        8.8481598077        8.6762620871
H            10.4195096238        7.9907220863        9.4825685799
H             9.4546255861       12.0646343325        9.9332610770
H            12.2737435411       11.6646550506       10.3572556286
H             7.8018127351        8.5170291752       11.1431682822
H             6.3362057671        9.1836788976       10.3853535633
H             7.4169463945       10.2398526472       11.3254818827
H            12.8658109630        7.9458182684        9.9083202995
H            13.6650191355        9.4463218748        9.3583900073
H            13.3572325938        9.1778444804       11.1040733685
Cl            9.9562381197        6.5355687643        9.8249359002



     Writing config-only to output data dir ./plusCL4.save/
     NEW-OLD atomic charge density approx. for the potential

     negative rho (up, down):  9.054E-04 0.000E+00

     total cpu time spent up to now is      652.7 secs

     Self-consistent Calculation

     iteration #  1     ecut=    60.00 Ry     beta= 0.70
     Davidson diagonalization with overlap
     ethr =  1.00E-06,  avg # of iterations =  9.0

     negative rho (up, down):  9.061E-04 0.000E+00

     total cpu time spent up to now is      712.8 secs

     total energy              =    -259.36869973 Ry
     estimated scf accuracy    <       0.01254905 Ry

     iteration #  2     ecut=    60.00 Ry     beta= 0.70
     Davidson diagonalization with overlap
     ethr =  2.41E-05,  avg # of iterations =  3.0

     negative rho (up, down):  9.484E-04 0.000E+00

     total cpu time spent up to now is      762.5 secs

     total energy              =    -259.37167555 Ry
     estimated scf accuracy    <       0.00309084 Ry

     iteration #  3     ecut=    60.00 Ry     beta= 0.70
     Davidson diagonalization with overlap
     ethr =  5.94E-06,  avg # of iterations =  3.0

     negative rho (up, down):  9.169E-04 0.000E+00

     total cpu time spent up to now is      810.9 secs

     total energy              =    -259.37231163 Ry
     estimated scf accuracy    <       0.00009501 Ry

     iteration #  4     ecut=    60.00 Ry     beta= 0.70
     Davidson diagonalization with overlap
     ethr =  1.83E-07,  avg # of iterations =  3.0

     negative rho (up, down):  9.157E-04 0.000E+00

     total cpu time spent up to now is      860.4 secs

     total energy              =    -259.37233963 Ry
     estimated scf accuracy    <       0.00005219 Ry

     iteration #  5     ecut=    60.00 Ry     beta= 0.70
     Davidson diagonalization with overlap
     ethr =  1.00E-07,  avg # of iterations =  2.0

     negative rho (up, down):  9.148E-04 0.000E+00

     total cpu time spent up to now is      908.8 secs

     total energy              =    -259.37234882 Ry
     estimated scf accuracy    <       0.00000739 Ry

     iteration #  6     ecut=    60.00 Ry     beta= 0.70
     Davidson diagonalization with overlap
     ethr =  1.42E-08,  avg # of iterations =  2.0

     negative rho (up, down):  9.148E-04 0.000E+00

     total cpu time spent up to now is      958.0 secs

     total energy              =    -259.37235072 Ry
     estimated scf accuracy    <       0.00000147 Ry

     iteration #  7     ecut=    60.00 Ry     beta= 0.70
     Davidson diagonalization with overlap
     ethr =  2.83E-09,  avg # of iterations =  2.0

     negative rho (up, down):  9.149E-04 0.000E+00

     total cpu time spent up to now is     1005.7 secs

     End of self-consistent calculation

          k = 0.0000 0.0000 0.0000 (423701 PWs)   bands (ev):

   -27.3623 -24.2237 -20.3512 -19.3937 -18.5146 -17.1415 -16.5977 -16.0973
   -14.7331 -13.8878 -12.7274 -12.2635 -11.8565 -11.6392 -11.1349 -10.9313
   -10.4166 -10.2304  -9.8222  -9.3784  -8.7578  -7.6914  -6.6885  -4.8888
    -4.8550  -4.2896  -1.1502  -0.8804  -0.6633  -0.4663  -0.1314

     the Fermi energy is    -2.5155 ev

!    total energy              =    -259.37235096 Ry
     total all-electron energy =     -1612.223069 Ry
     estimated scf accuracy    <       0.00000008 Ry
     smearing contrib. (-TS)   =       0.00000000 Ry
     internal energy E=F+TS    =    -259.37235096 Ry

     The total energy is F=E-TS. E is the sum of the following terms:
     one-electron contribution =    -828.07103294 Ry
     hartree contribution      =     420.23559183 Ry
     xc contribution           =     -58.18504960 Ry
     ewald contribution        =     305.03974064 Ry
     one-center paw contrib.   =     -98.39160089 Ry

     convergence has been achieved in   7 iterations

     negative rho (up, down):  9.149E-04 0.000E+00

     Forces acting on atoms (cartesian axes, Ry/au):

     atom    1 type  1   force =    -0.04234836    0.07176637   -0.00637509
     atom    2 type  1   force =     0.08391944    0.07211938    0.02315414
     atom    3 type  2   force =     0.00071515   -0.00244390    0.00294757
     atom    4 type  2   force =    -0.03263160   -0.16077391   -0.06200457
     atom    5 type  2   force =    -0.00288552    0.03446207    0.00915983
     atom    6 type  2   force =     0.00888822    0.03300068    0.01225922
     atom    7 type  2   force =    -0.00491032   -0.00125414    0.00395480
     atom    8 type  2   force =    -0.00136187   -0.00251917   -0.00046729
     atom    9 type  3   force =     0.00281344    0.00428598   -0.00254767
     atom   10 type  3   force =     0.00300104   -0.00858151   -0.00368038
     atom   11 type  3   force =     0.00529881    0.03199553   -0.00157908
     atom   12 type  3   force =     0.00662838    0.01691976    0.00444949
     atom   13 type  3   force =    -0.00006759    0.02081118    0.00433730
     atom   14 type  3   force =     0.00168195   -0.00589289   -0.00101929
     atom   15 type  3   force =     0.00054175    0.00022657    0.00098478
     atom   16 type  3   force =    -0.00196473    0.00470624    0.00285743
     atom   17 type  3   force =    -0.00588181   -0.00099926   -0.00000700
     atom   18 type  3   force =     0.00426890    0.00119116   -0.00161276
     atom   19 type  3   force =     0.00252282   -0.00048574    0.00087061
     atom   20 type  4   force =    -0.02822810   -0.10853440    0.01431796
     The non-local contrib.  to forces
     atom    1 type  1   force =     0.22763518    0.08985574    0.02905345
     atom    2 type  1   force =    -0.11055024    0.11505759   -0.02667779
     atom    3 type  2   force =     0.41801659    0.13577374    0.12966794
     atom    4 type  2   force =     0.05742488    0.73895997    0.18545069
     atom    5 type  2   force =    -0.14704397   -0.25671145   -0.04668706
     atom    6 type  2   force =     0.08081611   -0.29695690   -0.01335961
     atom    7 type  2   force =     0.01376670    0.07290977   -0.09679211
     atom    8 type  2   force =    -0.37277768    0.24650810   -0.03050663
     atom    9 type  3   force =     0.03075633   -0.05969580    0.03653641
     atom   10 type  3   force =     0.00375281    0.06222069    0.04977015
     atom   11 type  3   force =     0.00375714    0.04663038    0.01145120
     atom   12 type  3   force =     0.04946541   -0.06459604   -0.00088288
     atom   13 type  3   force =    -0.06308684   -0.04898807   -0.01781370
     atom   14 type  3   force =    -0.02882155    0.06171705   -0.03562336
     atom   15 type  3   force =     0.07080389    0.01472615    0.01561147
     atom   16 type  3   force =    -0.00156072   -0.05663559   -0.04803956
     atom   17 type  3   force =     0.00699893    0.07778313    0.01267978
     atom   18 type  3   force =    -0.04931338   -0.02881043    0.05155399
     atom   19 type  3   force =    -0.02745024   -0.00978838   -0.07102546
     atom   20 type  4   force =    -0.00190748   -0.02221009   -0.00771463
     The ionic contribution  to forces
     atom    1 type  1   force =    -5.79463183    1.90190824   -2.24413083
     atom    2 type  1   force =     8.54648731   -0.73391127    1.02084823
     atom    3 type  2   force =    -7.02808996    0.21755733   -4.31291995
     atom    4 type  2   force =     0.23163468   -7.75540449   -2.58199497
     atom    5 type  2   force =    -2.07758136   11.05420188    0.72022041
     atom    6 type  2   force =     5.81847133    9.58237257    2.11142768
     atom    7 type  2   force =    -6.55112597   -0.85239706    4.05704853
     atom    8 type  2   force =     8.73864744   -3.04139244    0.80144370
     atom    9 type  3   force =    -2.18187901    2.38061966   -2.04581472
     atom   10 type  3   force =    -1.35476538   -2.14287548   -2.65643443
     atom   11 type  3   force =     0.25732845   -2.06445981   -1.02052811
     atom   12 type  3   force =    -1.65662747    3.56021675    0.11107334
     atom   13 type  3   force =     2.63530151    2.80819072    0.82024700
     atom   14 type  3   force =    -0.37759788   -2.29807107    2.08847234
     atom   15 type  3   force =    -3.40709729   -0.58675110   -0.11421856
     atom   16 type  3   force =    -1.16105402    1.99813152    2.43697594
     atom   17 type  3   force =     1.29036411   -3.08850898   -0.34099516
     atom   18 type  3   force =     2.99739835    0.67491541   -1.84874110
     atom   19 type  3   force =     2.21870149   -0.02183289    2.78954718
     atom   20 type  4   force =    -1.14388451  -11.59250950    0.20847348
     The local contribution  to forces
     atom    1 type  1   force =     5.52359782   -1.91774100    2.20855685
     atom    2 type  1   force =    -8.34851392    0.69261101   -0.97038934
     atom    3 type  2   force =     6.61877943   -0.35344158    4.18974400
     atom    4 type  2   force =    -0.32216002    6.86149020    2.33621907
     atom    5 type  2   force =     2.21703719  -10.76463730   -0.66508110
     atom    6 type  2   force =    -5.88623793   -9.25545524   -2.08523237
     atom    7 type  2   force =     6.53300443    0.77955076   -3.95859242
     atom    8 type  2   force =    -8.37455629    2.79697843   -0.77202195
     atom    9 type  3   force =     2.15394578   -2.31667541    2.00674833
     atom   10 type  3   force =     1.35401565    2.07209820    2.60301425
     atom   11 type  3   force =    -0.25580820    2.04977354    1.00750230
     atom   12 type  3   force =     1.61377891   -3.47870169   -0.10574248
     atom   13 type  3   force =    -2.57229136   -2.73840242   -0.79809849
     atom   14 type  3   force =     0.40810824    2.23045123   -2.05387756
     atom   15 type  3   force =     3.33682474    0.57224612    0.09957732
     atom   16 type  3   force =     1.16065077   -1.93678388   -2.38608089
     atom   17 type  3   force =    -1.30325655    3.00976201    0.32831364
     atom   18 type  3   force =    -2.94385173   -0.64492980    1.79559891
     atom   19 type  3   force =    -2.18875357    0.03112896   -2.71768609
     atom   20 type  4   force =     1.11593450   11.49950950   -0.18590313
     The core correction contribution to forces
     atom    1 type  1   force =     0.00081012   -0.00230758    0.00008194
     atom    2 type  1   force =    -0.00328206   -0.00167567   -0.00060367
     atom    3 type  2   force =    -0.00795909   -0.00237472   -0.00355312
     atom    4 type  2   force =     0.00043384   -0.00589169   -0.00169583
     atom    5 type  2   force =     0.00469805    0.00157350    0.00068987
     atom    6 type  2   force =    -0.00410818    0.00302547   -0.00057825
     atom    7 type  2   force =    -0.00047890   -0.00133004    0.00217130
     atom    8 type  2   force =     0.00728212   -0.00461664    0.00061158
     atom    9 type  3   force =     0.00000000    0.00000000    0.00000000
     atom   10 type  3   force =     0.00000000    0.00000000    0.00000000
     atom   11 type  3   force =     0.00000000    0.00000000    0.00000000
     atom   12 type  3   force =     0.00000000    0.00000000    0.00000000
     atom   13 type  3   force =     0.00000000    0.00000000    0.00000000
     atom   14 type  3   force =     0.00000000    0.00000000    0.00000000
     atom   15 type  3   force =     0.00000000    0.00000000    0.00000000
     atom   16 type  3   force =     0.00000000    0.00000000    0.00000000
     atom   17 type  3   force =     0.00000000    0.00000000    0.00000000
     atom   18 type  3   force =     0.00000000    0.00000000    0.00000000
     atom   19 type  3   force =     0.00000000    0.00000000    0.00000000
     atom   20 type  4   force =     0.00172964    0.00705582   -0.00061753
     The Hubbard contrib.    to forces
     atom    1 type  1   force =     0.00000000    0.00000000    0.00000000
     atom    2 type  1   force =     0.00000000    0.00000000    0.00000000
     atom    3 type  2   force =     0.00000000    0.00000000    0.00000000
     atom    4 type  2   force =     0.00000000    0.00000000    0.00000000
     atom    5 type  2   force =     0.00000000    0.00000000    0.00000000
     atom    6 type  2   force =     0.00000000    0.00000000    0.00000000
     atom    7 type  2   force =     0.00000000    0.00000000    0.00000000
     atom    8 type  2   force =     0.00000000    0.00000000    0.00000000
     atom    9 type  3   force =     0.00000000    0.00000000    0.00000000
     atom   10 type  3   force =     0.00000000    0.00000000    0.00000000
     atom   11 type  3   force =     0.00000000    0.00000000    0.00000000
     atom   12 type  3   force =     0.00000000    0.00000000    0.00000000
     atom   13 type  3   force =     0.00000000    0.00000000    0.00000000
     atom   14 type  3   force =     0.00000000    0.00000000    0.00000000
     atom   15 type  3   force =     0.00000000    0.00000000    0.00000000
     atom   16 type  3   force =     0.00000000    0.00000000    0.00000000
     atom   17 type  3   force =     0.00000000    0.00000000    0.00000000
     atom   18 type  3   force =     0.00000000    0.00000000    0.00000000
     atom   19 type  3   force =     0.00000000    0.00000000    0.00000000
     atom   20 type  4   force =     0.00000000    0.00000000    0.00000000
     The SCF correction term to forces
     atom    1 type  1   force =     0.00023361    0.00004984    0.00006442
     atom    2 type  1   force =    -0.00022839    0.00003661   -0.00002236
     atom    3 type  2   force =    -0.00003857    0.00004021    0.00000963
     atom    4 type  2   force =     0.00002829    0.00007098    0.00001739
     atom    5 type  2   force =    -0.00000219    0.00003431    0.00001863
     atom    6 type  2   force =    -0.00005987    0.00001366    0.00000268
     atom    7 type  2   force =    -0.00008333    0.00001131    0.00012042
     atom    8 type  2   force =     0.00003578    0.00000225    0.00000694
     atom    9 type  3   force =    -0.00001640    0.00003641   -0.00001677
     atom   10 type  3   force =    -0.00000879   -0.00002604   -0.00002941
     atom   11 type  3   force =     0.00001467    0.00005030   -0.00000356
     atom   12 type  3   force =     0.00000477   -0.00000039    0.00000242
     atom   13 type  3   force =     0.00000235    0.00000983    0.00000341
     atom   14 type  3   force =    -0.00001362    0.00000877    0.00001021
     atom   15 type  3   force =     0.00000367    0.00000427    0.00001548
     atom   16 type  3   force =    -0.00000752   -0.00000694    0.00000286
     atom   17 type  3   force =     0.00000495   -0.00003653   -0.00000434
     atom   18 type  3   force =     0.00002891    0.00001487   -0.00002364
     atom   19 type  3   force =     0.00001839    0.00000545    0.00003590
     atom   20 type  4   force =    -0.00010700   -0.00038125    0.00008069

     Total force =     0.260943     Total SCF correction =     0.000573


     Computing stress (Cartesian axis) and pressure


     negative rho (up, down):  9.149E-04 0.000E+00
          total   stress  (Ry/bohr**3)                   (kbar)     P=        1.33
   0.00000526   0.00000402   0.00000055            0.77        0.59        0.08
   0.00000402   0.00002071   0.00000146            0.59        3.05        0.22
   0.00000055   0.00000146   0.00000111            0.08        0.22        0.16

     Energy error            =      5.0E-02 Ry
     Gradient error          =      1.6E-01 Ry/Bohr

     number of scf cycles    =   2
     number of bfgs steps    =   1

     energy             old  =    -259.3227285676 Ry
     energy             new  =    -259.3723509623 Ry

     CASE: energy            _new < energy            _old

     new trust radius        =       0.3123523913 bohr
     new conv_thr            =       0.0000010000 Ry


ATOMIC_POSITIONS (angstrom)
N             9.5563973647       10.0134717485        9.6411205272
N            11.7178924955        9.7129214156        9.9807244156
C             8.1487439301        9.6866272441        9.3636305972
C            10.5577268259        9.1058232070        9.6176083260
C            10.1091779516       11.2336006351        9.9284514775
C            11.4515908119       11.0470434839       10.1315392421
C             7.3839497901        9.3904450339       10.6401936347
C            12.9767447586        9.0166388594       10.0896554324
H             7.7466078592       10.5720477771        8.8494599452
H             8.1236713626        8.8422117625        8.6741454254
H            10.4293699432        8.0115941508        9.4668382178
H             9.4595504896       12.0825031412        9.9373405308
H            12.2742698024       11.6852380021       10.3614201426
H             7.8032901378        8.5114936969       11.1418559859
H             6.3349192300        9.1836374101       10.3850705377
H             7.4148254367       10.2447892105       11.3284628087
H            12.8599644761        7.9447446419        9.9082938755
H            13.6699142097        9.4473811560        9.3567636190
H            13.3606344127        9.1773042917       11.1060928541
Cl            9.9139387116        6.3774831316        9.8481824047



     Writing config-only to output data dir ./plusCL4.save/
     NEW-OLD atomic charge density approx. for the potential

     negative rho (up, down):  7.817E-04 0.000E+00

     total cpu time spent up to now is     1152.9 secs

     Self-consistent Calculation

     iteration #  1     ecut=    60.00 Ry     beta= 0.70
     Davidson diagonalization with overlap
     ethr =  1.00E-06,  avg # of iterations = 10.0

     negative rho (up, down):  8.333E-04 0.000E+00

     total cpu time spent up to now is     1214.3 secs

     total energy              =    -259.39776738 Ry
     estimated scf accuracy    <       0.02589604 Ry

     iteration #  2     ecut=    60.00 Ry     beta= 0.70
     Davidson diagonalization with overlap
     ethr =  4.98E-05,  avg # of iterations =  3.0

     negative rho (up, down):  9.962E-04 0.000E+00

     total cpu time spent up to now is     1264.2 secs

     total energy              =    -259.40313957 Ry
     estimated scf accuracy    <       0.02714188 Ry

     iteration #  3     ecut=    60.00 Ry     beta= 0.70
     Davidson diagonalization with overlap
     ethr =  4.98E-05,  avg # of iterations =  3.0

     negative rho (up, down):  9.172E-04 0.000E+00

     total cpu time spent up to now is     1312.8 secs

     total energy              =    -259.40855175 Ry
     estimated scf accuracy    <       0.00039138 Ry

     iteration #  4     ecut=    60.00 Ry     beta= 0.70
     Davidson diagonalization with overlap
     ethr =  7.53E-07,  avg # of iterations =  4.0

     negative rho (up, down):  9.016E-04 0.000E+00

     total cpu time spent up to now is     1363.7 secs

     total energy              =    -259.40876870 Ry
     estimated scf accuracy    <       0.00013332 Ry

     iteration #  5     ecut=    60.00 Ry     beta= 0.70
     Davidson diagonalization with overlap
     ethr =  2.56E-07,  avg # of iterations =  2.0

     negative rho (up, down):  9.015E-04 0.000E+00

     total cpu time spent up to now is     1412.4 secs

     total energy              =    -259.40878813 Ry
     estimated scf accuracy    <       0.00002212 Ry

     iteration #  6     ecut=    60.00 Ry     beta= 0.70
     Davidson diagonalization with overlap
     ethr =  4.25E-08,  avg # of iterations =  2.0

     negative rho (up, down):  9.016E-04 0.000E+00

     total cpu time spent up to now is     1460.7 secs

     total energy              =    -259.40879145 Ry
     estimated scf accuracy    <       0.00000357 Ry

     iteration #  7     ecut=    60.00 Ry     beta= 0.70
     Davidson diagonalization with overlap
     ethr =  6.86E-09,  avg # of iterations =  3.0

     negative rho (up, down):  9.018E-04 0.000E+00

     total cpu time spent up to now is     1509.1 secs

     End of self-consistent calculation

          k = 0.0000 0.0000 0.0000 (423701 PWs)   bands (ev):

   -27.0798 -24.3095 -20.5225 -19.3818 -18.6268 -16.8005 -16.5634 -15.9477
   -15.0143 -13.9879 -12.7191 -12.3649 -12.0264 -11.8550 -11.2113 -11.0913
   -10.8380 -10.3221  -9.8644  -9.4673  -8.8615  -7.8386  -6.7619  -4.5544
    -4.5204  -4.3565  -1.5438  -1.3012  -0.8097  -0.5444  -0.1675

     the Fermi energy is    -3.0073 ev

!    total energy              =    -259.40879219 Ry
     total all-electron energy =     -1612.259510 Ry
     estimated scf accuracy    <       0.00000057 Ry
     smearing contrib. (-TS)   =       0.00000000 Ry
     internal energy E=F+TS    =    -259.40879219 Ry

     The total energy is F=E-TS. E is the sum of the following terms:
     one-electron contribution =    -814.94392869 Ry
     hartree contribution      =     413.47353200 Ry
     xc contribution           =     -57.99501886 Ry
     ewald contribution        =     298.44091464 Ry
     one-center paw contrib.   =     -98.38429127 Ry

     convergence has been achieved in   7 iterations

     negative rho (up, down):  9.018E-04 0.000E+00

     Forces acting on atoms (cartesian axes, Ry/au):

     atom    1 type  1   force =     0.04645692   -0.03755805   -0.01527584
     atom    2 type  1   force =    -0.07805295   -0.02591349   -0.03330351
     atom    3 type  2   force =     0.00129616    0.02381323    0.00220704
     atom    4 type  2   force =     0.01527385    0.02453791    0.00560259
     atom    5 type  2   force =     0.00240390    0.01264838    0.00687974
     atom    6 type  2   force =     0.00095464    0.01457714    0.01004075
     atom    7 type  2   force =    -0.00545214   -0.00154939    0.00113968
     atom    8 type  2   force =     0.02339512    0.01414528    0.00676541
     atom    9 type  3   force =    -0.00520596   -0.00308218   -0.00166604
     atom   10 type  3   force =     0.00470077   -0.00739075   -0.00181864
     atom   11 type  3   force =    -0.00571896   -0.01969533   -0.00255994
     atom   12 type  3   force =     0.00116614    0.02756242    0.00588174
     atom   13 type  3   force =     0.00679341    0.03110635    0.00795795
     atom   14 type  3   force =     0.00052185   -0.00373492   -0.00060939
     atom   15 type  3   force =     0.00102429   -0.00025238    0.00293863
     atom   16 type  3   force =    -0.00169064    0.00111644    0.00084971
     atom   17 type  3   force =    -0.01045383    0.00056712   -0.00067003
     atom   18 type  3   force =     0.00717774   -0.00419708    0.00168055
     atom   19 type  3   force =     0.00651997   -0.00431897   -0.00233079
     atom   20 type  4   force =    -0.01111030   -0.04238171    0.00629040
     The non-local contrib.  to forces
     atom    1 type  1   force =     0.27598392    0.02200633    0.00333551
     atom    2 type  1   force =    -0.16180028    0.05802576   -0.09389445
     atom    3 type  2   force =     0.42908522    0.17160087    0.12665495
     atom    4 type  2   force =     0.08136155    0.79824535    0.24523226
     atom    5 type  2   force =    -0.13828562   -0.29174480   -0.05227006
     atom    6 type  2   force =     0.07127010   -0.32864123   -0.01792876
     atom    7 type  2   force =     0.01826690    0.07862586   -0.10952199
     atom    8 type  2   force =    -0.35577492    0.27843288   -0.02250954
     atom    9 type  3   force =     0.02873047   -0.05987046    0.03609545
     atom   10 type  3   force =     0.00304265    0.06233459    0.04997367
     atom   11 type  3   force =     0.00758728    0.06772013    0.01013749
     atom   12 type  3   force =     0.05083214   -0.06604234   -0.00054368
     atom   13 type  3   force =    -0.06489950   -0.04997317   -0.01791956
     atom   14 type  3   force =    -0.02893098    0.06197311   -0.03488833
     atom   15 type  3   force =     0.07065668    0.01464591    0.01611578
     atom   16 type  3   force =    -0.00143618   -0.05658640   -0.04748750
     atom   17 type  3   force =     0.00707532    0.07810248    0.01252696
     atom   18 type  3   force =    -0.04860680   -0.02895082    0.05108606
     atom   19 type  3   force =    -0.02691729   -0.00996292   -0.07052590
     atom   20 type  4   force =     0.00485102    0.01604618   -0.00627724
     The ionic contribution  to forces
     atom    1 type  1   force =    -5.17837200    1.70711622   -2.12084692
     atom    2 type  1   force =     7.59213452   -0.77887940    1.04902613
     atom    3 type  2   force =    -6.92288439   -0.00729096   -4.27545266
     atom    4 type  2   force =     0.49846260   -7.23233727   -2.93011283
     atom    5 type  2   force =    -1.91148652   10.79622783    0.81727222
     atom    6 type  2   force =     5.49402625    9.43886416    2.11994731
     atom    7 type  2   force =    -6.42899681   -0.88089968    4.09472680
     atom    8 type  2   force =     8.63991577   -3.28228755    0.76172957
     atom    9 type  3   force =    -2.15484376    2.36406191   -2.03975266
     atom   10 type  3   force =    -1.29226886   -2.15389594   -2.63112112
     atom   11 type  3   force =     0.15469828   -2.47440973   -0.94549113
     atom   12 type  3   force =    -1.67143562    3.57211537    0.11022771
     atom   13 type  3   force =     2.64797086    2.82688529    0.82222754
     atom   14 type  3   force =    -0.34006157   -2.29524258    2.05608748
     atom   15 type  3   force =    -3.39182583   -0.58574934   -0.12204511
     atom   16 type  3   force =    -1.14728202    1.98659517    2.41859359
     atom   17 type  3   force =     1.22626687   -3.08666118   -0.34108035
     atom   18 type  3   force =     2.98321154    0.65441682   -1.84524567
     atom   19 type  3   force =     2.20218689   -0.04360667    2.78034340
     atom   20 type  4   force =    -0.99941618  -10.52502247    0.22096670
     The local contribution  to forces
     atom    1 type  1   force =     4.95068356   -1.76695500    2.10200182
     atom    2 type  1   force =    -7.50812438    0.69503570   -0.98925352
     atom    3 type  2   force =     6.50290266   -0.13787533    4.15452571
     atom    4 type  2   force =    -0.56286010    6.46837808    2.69372759
     atom    5 type  2   force =     2.04867713  -10.49415669   -0.75862854
     atom    6 type  2   force =    -5.56053804   -9.09946684   -2.09146650
     atom    7 type  2   force =     6.40582601    0.80206453   -3.98617649
     atom    8 type  2   force =    -8.26783288    3.02305731   -0.73293868
     atom    9 type  3   force =     2.12085681   -2.30726946    2.00197411
     atom   10 type  3   force =     1.29392362    2.08411713    2.57932353
     atom   11 type  3   force =    -0.16797137    2.38699473    0.93283998
     atom   12 type  3   force =     1.62175803   -3.47843757   -0.10378365
     atom   13 type  3   force =    -2.57631205   -2.74590485   -0.79636231
     atom   14 type  3   force =     0.36951794    2.22953553   -2.02180447
     atom   15 type  3   force =     3.32219880    0.57084220    0.10888434
     atom   16 type  3   force =     1.14701722   -1.92891848   -2.37023841
     atom   17 type  3   force =    -1.24384885    3.00914641    0.32788446
     atom   18 type  3   force =    -2.92747200   -0.62963866    1.79584568
     atom   19 type  3   force =    -2.16879895    0.04927754   -2.71215516
     atom   20 type  4   force =     0.98307517   10.46439929   -0.20817968
     The core correction contribution to forces
     atom    1 type  1   force =    -0.00127202   -0.00041777    0.00037407
     atom    2 type  1   force =    -0.00032224   -0.00006998    0.00091308
     atom    3 type  2   force =    -0.00802449   -0.00284926   -0.00346537
     atom    4 type  2   force =    -0.00114931   -0.00997981   -0.00307642
     atom    5 type  2   force =     0.00409675    0.00224747    0.00066264
     atom    6 type  2   force =    -0.00336737    0.00337598   -0.00045231
     atom    7 type  2   force =    -0.00056772   -0.00144932    0.00223702
     atom    8 type  2   force =     0.00671682   -0.00485480    0.00049306
     atom    9 type  3   force =     0.00000000    0.00000000    0.00000000
     atom   10 type  3   force =     0.00000000    0.00000000    0.00000000
     atom   11 type  3   force =     0.00000000    0.00000000    0.00000000
     atom   12 type  3   force =     0.00000000    0.00000000    0.00000000
     atom   13 type  3   force =     0.00000000    0.00000000    0.00000000
     atom   14 type  3   force =     0.00000000    0.00000000    0.00000000
     atom   15 type  3   force =     0.00000000    0.00000000    0.00000000
     atom   16 type  3   force =     0.00000000    0.00000000    0.00000000
     atom   17 type  3   force =     0.00000000    0.00000000    0.00000000
     atom   18 type  3   force =     0.00000000    0.00000000    0.00000000
     atom   19 type  3   force =     0.00000000    0.00000000    0.00000000
     atom   20 type  4   force =     0.00068119    0.00270935   -0.00033232
     The Hubbard contrib.    to forces
     atom    1 type  1   force =     0.00000000    0.00000000    0.00000000
     atom    2 type  1   force =     0.00000000    0.00000000    0.00000000
     atom    3 type  2   force =     0.00000000    0.00000000    0.00000000
     atom    4 type  2   force =     0.00000000    0.00000000    0.00000000
     atom    5 type  2   force =     0.00000000    0.00000000    0.00000000
     atom    6 type  2   force =     0.00000000    0.00000000    0.00000000
     atom    7 type  2   force =     0.00000000    0.00000000    0.00000000
     atom    8 type  2   force =     0.00000000    0.00000000    0.00000000
     atom    9 type  3   force =     0.00000000    0.00000000    0.00000000
     atom   10 type  3   force =     0.00000000    0.00000000    0.00000000
     atom   11 type  3   force =     0.00000000    0.00000000    0.00000000
     atom   12 type  3   force =     0.00000000    0.00000000    0.00000000
     atom   13 type  3   force =     0.00000000    0.00000000    0.00000000
     atom   14 type  3   force =     0.00000000    0.00000000    0.00000000
     atom   15 type  3   force =     0.00000000    0.00000000    0.00000000
     atom   16 type  3   force =     0.00000000    0.00000000    0.00000000
     atom   17 type  3   force =     0.00000000    0.00000000    0.00000000
     atom   18 type  3   force =     0.00000000    0.00000000    0.00000000
     atom   19 type  3   force =     0.00000000    0.00000000    0.00000000
     atom   20 type  4   force =     0.00000000    0.00000000    0.00000000
     The SCF correction term to forces
     atom    1 type  1   force =    -0.00056740    0.00069442   -0.00013952
     atom    2 type  1   force =     0.00005857   -0.00002334   -0.00009395
     atom    3 type  2   force =     0.00021630    0.00023015   -0.00005478
     atom    4 type  2   force =    -0.00054174    0.00023380   -0.00016720
     atom    5 type  2   force =    -0.00059870    0.00007680   -0.00015573
     atom    6 type  2   force =    -0.00043716    0.00044730   -0.00005818
     atom    7 type  2   force =     0.00001862    0.00011146   -0.00012484
     atom    8 type  2   force =     0.00036947   -0.00020032   -0.00000818
     atom    9 type  3   force =     0.00004966   -0.00000192    0.00001786
     atom   10 type  3   force =     0.00000250    0.00005572    0.00000609
     atom   11 type  3   force =    -0.00003401    0.00000177   -0.00004546
     atom   12 type  3   force =     0.00001073   -0.00007081   -0.00001782
     atom   13 type  3   force =     0.00003325    0.00010132    0.00001310
     atom   14 type  3   force =    -0.00000439    0.00000126   -0.00000326
     atom   15 type  3   force =    -0.00000621    0.00001109   -0.00001558
     atom   16 type  3   force =     0.00000947    0.00002839   -0.00001716
     atom   17 type  3   force =     0.00005197   -0.00001835   -0.00000029
     atom   18 type  3   force =     0.00004415   -0.00002218   -0.00000472
     atom   19 type  3   force =     0.00004845   -0.00002467    0.00000768
     atom   20 type  4   force =    -0.00030236   -0.00051182    0.00011375

     Total force =     0.138296     Total SCF correction =     0.001645


     Computing stress (Cartesian axis) and pressure


     negative rho (up, down):  9.018E-04 0.000E+00
          total   stress  (Ry/bohr**3)                   (kbar)     P=        0.48
  -0.00000118   0.00000212  -0.00000049           -0.17        0.31       -0.07
   0.00000212   0.00001079   0.00000090            0.31        1.59        0.13
  -0.00000049   0.00000090   0.00000020           -0.07        0.13        0.03

     Energy error            =      3.6E-02 Ry
     Gradient error          =      7.8E-02 Ry/Bohr

     number of scf cycles    =   3
     number of bfgs steps    =   2

     energy             old  =    -259.3723509623 Ry
     energy             new  =    -259.4087921862 Ry

     CASE: energy            _new < energy            _old

     new trust radius        =       0.1425932394 bohr
     new conv_thr            =       0.0000007805 Ry


ATOMIC_POSITIONS (angstrom)
N             9.5726832595       10.0107693568        9.6312517638
N            11.6944388335        9.7164053466        9.9685974093
C             8.1469634427        9.6978572667        9.3649394223
C            10.5625459751        9.0969038676        9.6034482379
C            10.1102538892       11.2498417347        9.9349429747
C            11.4544424645       11.0643432716       10.1404580920
C             7.3800485394        9.3892735561       10.6426898850
C            12.9898981237        9.0235179816       10.0930947361
H             7.7448806657       10.5719967649        8.8476880856
H             8.1274241954        8.8359038208        8.6722758584
H            10.4292050323        8.0092490211        9.4614814997
H             9.4620468696       12.1034522590        9.9419606333
H            12.2780635271       11.7091557220       10.3671720405
H             7.8041009473        8.5075350489       11.1411050703
H             6.3352161768        9.1835138783       10.3866906648
H             7.4131980395       10.2470665979       11.3299344982
H            12.8522988206        7.9446897136        9.9079244922
H            13.6754143907        9.4454894360        9.3571145046
H            13.3652399497        9.1747889428       11.1054103996
Cl            9.8948168576        6.3052464130        9.8586697316



     Writing config-only to output data dir ./plusCL4.save/
     NEW-OLD atomic charge density approx. for the potential

     negative rho (up, down):  8.593E-04 0.000E+00

     total cpu time spent up to now is     1658.2 secs

     Self-consistent Calculation

     iteration #  1     ecut=    60.00 Ry     beta= 0.70
     Davidson diagonalization with overlap
     ethr =  1.00E-06,  avg # of iterations = 14.0

     negative rho (up, down):  8.687E-04 0.000E+00

     total cpu time spent up to now is     1716.6 secs

     total energy              =    -259.41877138 Ry
     estimated scf accuracy    <       0.00287459 Ry

     iteration #  2     ecut=    60.00 Ry     beta= 0.70
     Davidson diagonalization with overlap
     ethr =  5.53E-06,  avg # of iterations =  3.0

     negative rho (up, down):  9.000E-04 0.000E+00

     total cpu time spent up to now is     1766.7 secs

     total energy              =    -259.41934430 Ry
     estimated scf accuracy    <       0.00115757 Ry

     iteration #  3     ecut=    60.00 Ry     beta= 0.70
     Davidson diagonalization with overlap
     ethr =  2.23E-06,  avg # of iterations =  3.0

     negative rho (up, down):  8.938E-04 0.000E+00

     total cpu time spent up to now is     1815.8 secs

     total energy              =    -259.41961854 Ry
     estimated scf accuracy    <       0.00008153 Ry

     iteration #  4     ecut=    60.00 Ry     beta= 0.70
     Davidson diagonalization with overlap
     ethr =  1.57E-07,  avg # of iterations =  2.0

     negative rho (up, down):  8.927E-04 0.000E+00

     total cpu time spent up to now is     1864.8 secs

     total energy              =    -259.41963813 Ry
     estimated scf accuracy    <       0.00001894 Ry

     iteration #  5     ecut=    60.00 Ry     beta= 0.70
     Davidson diagonalization with overlap
     ethr =  3.64E-08,  avg # of iterations =  2.0

     negative rho (up, down):  8.929E-04 0.000E+00

     total cpu time spent up to now is     1913.6 secs

     total energy              =    -259.41964204 Ry
     estimated scf accuracy    <       0.00000392 Ry

     iteration #  6     ecut=    60.00 Ry     beta= 0.70
     Davidson diagonalization with overlap
     ethr =  7.54E-09,  avg # of iterations =  2.0

     negative rho (up, down):  8.931E-04 0.000E+00

     total cpu time spent up to now is     1961.4 secs

     End of self-consistent calculation

          k = 0.0000 0.0000 0.0000 (423701 PWs)   bands (ev):

   -27.1220 -24.1553 -20.4430 -19.5120 -18.5650 -16.7714 -16.3999 -15.9979
   -15.0558 -14.0119 -12.7203 -12.3146 -12.0096 -11.8148 -11.2056 -11.1669
   -10.9566 -10.3927  -9.9256  -9.4587  -8.8688  -7.8606  -6.9198  -4.4381
    -4.4086  -4.3416  -1.5455  -1.4091  -0.8341  -0.5659  -0.2002

     the Fermi energy is    -3.0416 ev

!    total energy              =    -259.41964289 Ry
     total all-electron energy =     -1612.270361 Ry
     estimated scf accuracy    <       0.00000017 Ry
     smearing contrib. (-TS)   =       0.00000000 Ry
     internal energy E=F+TS    =    -259.41964289 Ry

     The total energy is F=E-TS. E is the sum of the following terms:
     one-electron contribution =    -809.95637638 Ry
     hartree contribution      =     410.93351030 Ry
     xc contribution           =     -57.92404610 Ry
     ewald contribution        =     295.90978201 Ry
     one-center paw contrib.   =     -98.38251273 Ry

     convergence has been achieved in   6 iterations

     negative rho (up, down):  8.931E-04 0.000E+00

     Forces acting on atoms (cartesian axes, Ry/au):

     atom    1 type  1   force =     0.00825383   -0.01042141   -0.01333438
     atom    2 type  1   force =     0.00661524   -0.01833884   -0.01419569
     atom    3 type  2   force =     0.01306247   -0.00638256   -0.00383746
     atom    4 type  2   force =    -0.00135618    0.03711482    0.00856873
     atom    5 type  2   force =     0.00531032   -0.01064652    0.00184760
     atom    6 type  2   force =    -0.01367011   -0.00482587    0.00238123
     atom    7 type  2   force =     0.00611578    0.00354995    0.00109625
     atom    8 type  2   force =    -0.01685227    0.00266504   -0.00551007
     atom    9 type  3   force =    -0.00653238    0.00448632   -0.00450198
     atom   10 type  3   force =     0.00292060    0.00769447    0.00854586
     atom   11 type  3   force =    -0.00718713   -0.03103664   -0.00180635
     atom   12 type  3   force =     0.00046146    0.02031927    0.00512736
     atom   13 type  3   force =     0.00455088    0.02168157    0.00674006
     atom   14 type  3   force =    -0.00078588   -0.00081485   -0.00198810
     atom   15 type  3   force =    -0.00322321   -0.00102996    0.00152672
     atom   16 type  3   force =    -0.00255682   -0.00174643    0.00088967
     atom   17 type  3   force =    -0.00515833    0.01117978    0.00162750
     atom   18 type  3   force =     0.00964075    0.00009812   -0.00226432
     atom   19 type  3   force =     0.00654912   -0.00007352    0.00567171
     atom   20 type  4   force =    -0.00615813   -0.02347273    0.00341565
     The non-local contrib.  to forces
     atom    1 type  1   force =     0.24545651    0.03037559    0.01746698
     atom    2 type  1   force =    -0.12759404    0.05538801   -0.07963503
     atom    3 type  2   force =     0.43912458    0.13469956    0.11646549
     atom    4 type  2   force =     0.06528946    0.76874914    0.22933811
     atom    5 type  2   force =    -0.13653047   -0.30810356   -0.06309524
     atom    6 type  2   force =     0.06227600   -0.34199457   -0.03018681
     atom    7 type  2   force =     0.03173087    0.08600458   -0.11085442
     atom    8 type  2   force =    -0.39099282    0.25796091   -0.03759440
     atom    9 type  3   force =     0.02962200   -0.06074489    0.03743650
     atom   10 type  3   force =     0.00243661    0.06027763    0.04735589
     atom   11 type  3   force =     0.00881694    0.07149317    0.00951873
     atom   12 type  3   force =     0.05003321   -0.06604846   -0.00045132
     atom   13 type  3   force =    -0.06390732   -0.05020905   -0.01742921
     atom   14 type  3   force =    -0.02900184    0.06168103   -0.03435220
     atom   15 type  3   force =     0.07144936    0.01481693    0.01641129
     atom   16 type  3   force =    -0.00166513   -0.05645771   -0.04693266
     atom   17 type  3   force =     0.00854472    0.07594658    0.01236283
     atom   18 type  3   force =    -0.04927375   -0.02894697    0.05262618
     atom   19 type  3   force =    -0.02728025   -0.00942611   -0.07248980
     atom   20 type  4   force =     0.00832728    0.03146134   -0.00774400
     The ionic contribution  to forces
     atom    1 type  1   force =    -5.19456015    1.73003025   -2.23915745
     atom    2 type  1   force =     7.81206821   -0.77476499    1.00659503
     atom    3 type  2   force =    -6.82673564    0.04347160   -4.18872611
     atom    4 type  2   force =     0.41650841   -7.46253493   -3.07375541
     atom    5 type  2   force =    -2.04163947   10.65974971    0.87657138
     atom    6 type  2   force =     5.58206311    9.30332473    2.23531380
     atom    7 type  2   force =    -6.34280711   -0.89804125    4.06962043
     atom    8 type  2   force =     8.42605414   -3.11444623    0.78557696
     atom    9 type  3   force =    -2.15629265    2.36647628   -2.05152691
     atom   10 type  3   force =    -1.27102959   -2.12174267   -2.57196001
     atom   11 type  3   force =     0.11155797   -2.59707904   -0.91404862
     atom   12 type  3   force =    -1.66094226    3.54105145    0.10901538
     atom   13 type  3   force =     2.62433720    2.79585519    0.81131802
     atom   14 type  3   force =    -0.32356556   -2.28459615    2.03258249
     atom   15 type  3   force =    -3.39544244   -0.58841624   -0.12885623
     atom   16 type  3   force =    -1.13433902    1.97860779    2.40430245
     atom   17 type  3   force =     1.18629683   -3.04117494   -0.33410917
     atom   18 type  3   force =     2.96929831    0.65158415   -1.85818625
     atom   19 type  3   force =     2.18017230   -0.04944593    2.79519112
     atom   20 type  4   force =    -0.96100259  -10.13790876    0.23423910
     The local contribution  to forces
     atom    1 type  1   force =     4.95828221   -1.76996404    2.20834020
     atom    2 type  1   force =    -7.67655447    0.70167538   -0.94160657
     atom    3 type  2   force =     6.40879812   -0.18248913    4.07169792
     atom    4 type  2   force =    -0.48238620    6.73987703    2.85562284
     atom    5 type  2   force =     2.17944720  -10.36496284   -0.81238864
     atom    6 type  2   force =    -5.65438228   -8.97002727   -2.20233374
     atom    7 type  2   force =     6.31795651    0.81714981   -3.95985685
     atom    8 type  2   force =    -8.05967337    2.86387103   -0.75427990
     atom    9 type  3   force =     2.12009501   -2.30125371    2.00958103
     atom   10 type  3   force =     1.27147025    2.06914047    2.53313838
     atom   11 type  3   force =    -0.12756019    2.49449405    0.90273716
     atom   12 type  3   force =     1.61136945   -3.45465763   -0.10342128
     atom   13 type  3   force =    -2.55592204   -2.72400272   -0.78714919
     atom   14 type  3   force =     0.35175509    2.22208684   -2.00020596
     atom   15 type  3   force =     3.32075115    0.57256320    0.11397544
     atom   16 type  3   force =     1.13341862   -1.92390800   -2.35647191
     atom   17 type  3   force =    -1.19999434    2.97637678    0.32337632
     atom   18 type  3   force =    -2.91037408   -0.62254044    1.80328928
     atom   19 type  3   force =    -2.14634041    0.05879495   -2.71701014
     atom   20 type  4   force =     0.94621410   10.08175485   -0.22287884
     The core correction contribution to forces
     atom    1 type  1   force =    -0.00083556   -0.00082971    0.00013653
     atom    2 type  1   force =    -0.00130420   -0.00031255    0.00057871
     atom    3 type  2   force =    -0.00839258   -0.00207929   -0.00332128
     atom    4 type  2   force =    -0.00052206   -0.00899890   -0.00254818
     atom    5 type  2   force =     0.00436859    0.00281655    0.00090403
     atom    6 type  2   force =    -0.00348610    0.00391741   -0.00031726
     atom    7 type  2   force =    -0.00090370   -0.00155526    0.00222838
     atom    8 type  2   force =     0.00783721   -0.00471132    0.00081996
     atom    9 type  3   force =     0.00000000    0.00000000    0.00000000
     atom   10 type  3   force =     0.00000000    0.00000000    0.00000000
     atom   11 type  3   force =     0.00000000    0.00000000    0.00000000
     atom   12 type  3   force =     0.00000000    0.00000000    0.00000000
     atom   13 type  3   force =     0.00000000    0.00000000    0.00000000
     atom   14 type  3   force =     0.00000000    0.00000000    0.00000000
     atom   15 type  3   force =     0.00000000    0.00000000    0.00000000
     atom   16 type  3   force =     0.00000000    0.00000000    0.00000000
     atom   17 type  3   force =     0.00000000    0.00000000    0.00000000
     atom   18 type  3   force =     0.00000000    0.00000000    0.00000000
     atom   19 type  3   force =     0.00000000    0.00000000    0.00000000
     atom   20 type  4   force =     0.00032198    0.00119879   -0.00012015
     The Hubbard contrib.    to forces
     atom    1 type  1   force =     0.00000000    0.00000000    0.00000000
     atom    2 type  1   force =     0.00000000    0.00000000    0.00000000
     atom    3 type  2   force =     0.00000000    0.00000000    0.00000000
     atom    4 type  2   force =     0.00000000    0.00000000    0.00000000
     atom    5 type  2   force =     0.00000000    0.00000000    0.00000000
     atom    6 type  2   force =     0.00000000    0.00000000    0.00000000
     atom    7 type  2   force =     0.00000000    0.00000000    0.00000000
     atom    8 type  2   force =     0.00000000    0.00000000    0.00000000
     atom    9 type  3   force =     0.00000000    0.00000000    0.00000000
     atom   10 type  3   force =     0.00000000    0.00000000    0.00000000
     atom   11 type  3   force =     0.00000000    0.00000000    0.00000000
     atom   12 type  3   force =     0.00000000    0.00000000    0.00000000
     atom   13 type  3   force =     0.00000000    0.00000000    0.00000000
     atom   14 type  3   force =     0.00000000    0.00000000    0.00000000
     atom   15 type  3   force =     0.00000000    0.00000000    0.00000000
     atom   16 type  3   force =     0.00000000    0.00000000    0.00000000
     atom   17 type  3   force =     0.00000000    0.00000000    0.00000000
     atom   18 type  3   force =     0.00000000    0.00000000    0.00000000
     atom   19 type  3   force =     0.00000000    0.00000000    0.00000000
     atom   20 type  4   force =     0.00000000    0.00000000    0.00000000
     The SCF correction term to forces
     atom    1 type  1   force =    -0.00009880   -0.00004485   -0.00012078
     atom    2 type  1   force =    -0.00000989   -0.00033604   -0.00012797
     atom    3 type  2   force =     0.00025836    0.00000334    0.00004638
     atom    4 type  2   force =    -0.00025542    0.00001112   -0.00008877
     atom    5 type  2   force =    -0.00034515   -0.00015774   -0.00014407
     atom    6 type  2   force =    -0.00015047   -0.00005752   -0.00009491
     atom    7 type  2   force =     0.00012958   -0.00001929   -0.00004144
     atom    8 type  2   force =    -0.00008705   -0.00002069   -0.00003284
     atom    9 type  3   force =     0.00003364   -0.00000270    0.00000726
     atom   10 type  3   force =     0.00003370    0.00000769    0.00001146
     atom   11 type  3   force =    -0.00001148    0.00004383   -0.00001377
     atom   12 type  3   force =    -0.00000857   -0.00003743   -0.00001556
     atom   13 type  3   force =     0.00003341    0.00002679    0.00000029
     atom   14 type  3   force =     0.00001679    0.00000207   -0.00001257
     atom   15 type  3   force =     0.00000908   -0.00000520   -0.00000393
     atom   16 type  3   force =     0.00001909    0.00000014   -0.00000835
     atom   17 type  3   force =    -0.00001517    0.00002001   -0.00000263
     atom   18 type  3   force =    -0.00001936   -0.00000999    0.00000632
     atom   19 type  3   force =    -0.00001215   -0.00000778   -0.00001961
     atom   20 type  4   force =    -0.00002853    0.00000969   -0.00008061

     Total force =     0.080768     Total SCF correction =     0.000738


     Computing stress (Cartesian axis) and pressure


     negative rho (up, down):  8.931E-04 0.000E+00
          total   stress  (Ry/bohr**3)                   (kbar)     P=        0.20
  -0.00000098   0.00000147  -0.00000017           -0.14        0.22       -0.02
   0.00000147   0.00000498   0.00000010            0.22        0.73        0.02
  -0.00000017   0.00000010   0.00000012           -0.02        0.02        0.02

     Energy error            =      1.1E-02 Ry
     Gradient error          =      3.7E-02 Ry/Bohr

     number of scf cycles    =   4
     number of bfgs steps    =   3

     energy             old  =    -259.4087921862 Ry
     energy             new  =    -259.4196428943 Ry

     CASE: energy            _new < energy            _old

     new trust radius        =       0.1531792674 bohr
     new conv_thr            =       0.0000003711 Ry


ATOMIC_POSITIONS (angstrom)
N             9.5823473830       10.0112526234        9.6158444517
N            11.6964678999        9.7146819848        9.9552473756
C             8.1541731306        9.6987501903        9.3631229695
C            10.5617461201        9.1038642369        9.5931118107
C            10.1143374980       11.2559398219        9.9410873872
C            11.4476689534       11.0750111337       10.1486590131
C             7.3816691144        9.3909410546       10.6456438551
C            12.9853981574        9.0286895433       10.0910145809
H             7.7399214901       10.5758493607        8.8431871675
H             8.1320354485        8.8366851079        8.6767465354
H            10.4254136034        7.9906791409        9.4557884876
H             9.4646483479       12.1317204534        9.9487095317
H            12.2833097427       11.7405016535       10.3756499725
H             7.8042496133        8.5038999022       11.1391242229
H             6.3330572676        9.1827443801       10.3886693909
H             7.4102070435       10.2478753579       11.3318273574
H            12.8436238161        7.9522595433        9.9088542613
H            13.6858352114        9.4447252454        9.3554615890
H            13.3727655568        9.1733003190       11.1092350351
Cl            9.8743046019        6.2276289468        9.8698650048



     Writing config-only to output data dir ./plusCL4.save/
     NEW-OLD atomic charge density approx. for the potential

     negative rho (up, down):  8.830E-04 0.000E+00

     total cpu time spent up to now is     2113.3 secs

     Self-consistent Calculation

     iteration #  1     ecut=    60.00 Ry     beta= 0.70
     Davidson diagonalization with overlap
     ethr =  1.00E-06,  avg # of iterations =  9.0

     negative rho (up, down):  8.766E-04 0.000E+00

     total cpu time spent up to now is     2170.7 secs

     total energy              =    -259.42428862 Ry
     estimated scf accuracy    <       0.00269667 Ry

     iteration #  2     ecut=    60.00 Ry     beta= 0.70
     Davidson diagonalization with overlap
     ethr =  5.19E-06,  avg # of iterations =  3.0

     negative rho (up, down):  8.880E-04 0.000E+00

     total cpu time spent up to now is     2220.3 secs

     total energy              =    -259.42481233 Ry
     estimated scf accuracy    <       0.00087692 Ry

     iteration #  3     ecut=    60.00 Ry     beta= 0.70
     Davidson diagonalization with overlap
     ethr =  1.69E-06,  avg # of iterations =  3.0

     negative rho (up, down):  8.886E-04 0.000E+00

     total cpu time spent up to now is     2269.0 secs

     total energy              =    -259.42502412 Ry
     estimated scf accuracy    <       0.00008328 Ry

     iteration #  4     ecut=    60.00 Ry     beta= 0.70
     Davidson diagonalization with overlap
     ethr =  1.60E-07,  avg # of iterations =  2.0

     negative rho (up, down):  8.887E-04 0.000E+00

     total cpu time spent up to now is     2317.9 secs

     total energy              =    -259.42504396 Ry
     estimated scf accuracy    <       0.00001629 Ry

     iteration #  5     ecut=    60.00 Ry     beta= 0.70
     Davidson diagonalization with overlap
     ethr =  3.13E-08,  avg # of iterations =  2.0

     negative rho (up, down):  8.888E-04 0.000E+00

     total cpu time spent up to now is     2366.5 secs

     total energy              =    -259.42504720 Ry
     estimated scf accuracy    <       0.00000188 Ry

     iteration #  6     ecut=    60.00 Ry     beta= 0.70
     Davidson diagonalization with overlap
     ethr =  3.61E-09,  avg # of iterations =  2.0

     negative rho (up, down):  8.890E-04 0.000E+00

     total cpu time spent up to now is     2414.8 secs

     End of self-consistent calculation

          k = 0.0000 0.0000 0.0000 (423701 PWs)   bands (ev):

   -27.1932 -24.1865 -20.5038 -19.5638 -18.5507 -16.7555 -16.2705 -16.0377
   -15.1109 -14.0029 -12.7665 -12.3425 -11.9742 -11.8494 -11.2206 -11.1582
   -10.9686 -10.3863  -9.9336  -9.4507  -8.9133  -7.8509  -7.0592  -4.3892
    -4.3432  -4.3044  -1.5921  -1.4558  -0.8708  -0.5934  -0.2388

     the Fermi energy is    -2.9593 ev

!    total energy              =    -259.42504761 Ry
     total all-electron energy =     -1612.275765 Ry
     estimated scf accuracy    <       0.00000034 Ry
     smearing contrib. (-TS)   =       0.00000000 Ry
[...]
C             7.4057669950        9.3960324354       10.6363411362
C            12.9829703599        9.0382297933       10.0784269904
H             7.7263983965       10.5638429026        8.8137375966
H             8.1469893489        8.8347873196        8.6857691501
H            10.3795261520        7.9585890420        9.5250382861
H             9.5060200916       12.1538505796        9.9900659249
H            12.2286582667       11.7712862719       10.4145082895
H             7.8294375341        8.5043980655       11.1167817564
H             6.3561153821        9.1833176213       10.3946368453
H             7.4287617759       10.2412037551       11.3377241109
H            12.8187867722        7.9691657454        9.9069679696
H            13.7068859596        9.4259885561        9.3505284777
H            13.3648839888        9.1846460500       11.0959060859
Cl            9.8566200217        6.1820041050        9.8659944966



     Writing config-only to output data dir ./plusCL4.save/
     NEW-OLD atomic charge density approx. for the potential

     negative rho (up, down):  8.929E-04 0.000E+00

     total cpu time spent up to now is     8571.9 secs

     Self-consistent Calculation

     iteration #  1     ecut=    60.00 Ry     beta= 0.70
     Davidson diagonalization with overlap
     ethr =  1.00E-06,  avg # of iterations =  3.0

     Threshold (ethr) on eigenvalues was too large:
     Diagonalizing with lowered threshold

     Davidson diagonalization with overlap
     ethr =  1.55E-08,  avg # of iterations =  4.0

     negative rho (up, down):  8.927E-04 0.000E+00

     total cpu time spent up to now is     8648.2 secs

     total energy              =    -259.42918225 Ry
     estimated scf accuracy    <       0.00001004 Ry

     iteration #  2     ecut=    60.00 Ry     beta= 0.70
     Davidson diagonalization with overlap
     ethr =  1.93E-08,  avg # of iterations =  2.0

     negative rho (up, down):  8.927E-04 0.000E+00

     total cpu time spent up to now is     8693.4 secs

     total energy              =    -259.42918348 Ry
     estimated scf accuracy    <       0.00000090 Ry

     iteration #  3     ecut=    60.00 Ry     beta= 0.70
     Davidson diagonalization with overlap
     ethr =  1.73E-09,  avg # of iterations =  2.0

     negative rho (up, down):  8.927E-04 0.000E+00

     total cpu time spent up to now is     8742.0 secs

     total energy              =    -259.42918365 Ry
     estimated scf accuracy    <       0.00000015 Ry

     iteration #  4     ecut=    60.00 Ry     beta= 0.70
     Davidson diagonalization with overlap
     ethr =  2.91E-10,  avg # of iterations =  2.0

     negative rho (up, down):  8.927E-04 0.000E+00

     total cpu time spent up to now is     8790.4 secs

     total energy              =    -259.42918368 Ry
     estimated scf accuracy    <       0.00000005 Ry

     iteration #  5     ecut=    60.00 Ry     beta= 0.70
     Davidson diagonalization with overlap
     ethr =  9.79E-11,  avg # of iterations =  2.0

     negative rho (up, down):  8.927E-04 0.000E+00

     total cpu time spent up to now is     8838.2 secs

     End of self-consistent calculation

          k = 0.0000 0.0000 0.0000 (423701 PWs)   bands (ev):

   -27.1705 -24.2310 -20.5300 -19.5356 -18.5743 -16.7782 -16.3007 -16.0034
   -15.1761 -14.0238 -12.7536 -12.3782 -12.0430 -11.8215 -11.2469 -11.0946
   -10.9423 -10.3922  -9.9335  -9.4388  -8.9077  -7.8770  -7.0002  -4.4625
    -4.3784  -4.3406  -1.6637  -1.4408  -0.8725  -0.5778  -0.2495

     the Fermi energy is    -2.9644 ev

!    total energy              =    -259.42918369 Ry
     total all-electron energy =     -1612.279901 Ry
     estimated scf accuracy    <          7.3E-09 Ry
     smearing contrib. (-TS)   =       0.00000000 Ry
     internal energy E=F+TS    =    -259.42918369 Ry

     The total energy is F=E-TS. E is the sum of the following terms:
     one-electron contribution =    -805.08488762 Ry
     hartree contribution      =     408.42369989 Ry
     xc contribution           =     -57.86600703 Ry
     ewald contribution        =     293.47802221 Ry
     one-center paw contrib.   =     -98.38001113 Ry

     convergence has been achieved in   5 iterations

     negative rho (up, down):  8.927E-04 0.000E+00

     Forces acting on atoms (cartesian axes, Ry/au):

     atom    1 type  1   force =     0.00038366    0.00056869   -0.00031019
     atom    2 type  1   force =     0.00054393    0.00059455    0.00005660
     atom    3 type  2   force =     0.00015745   -0.00067387    0.00002076
     atom    4 type  2   force =    -0.00046946   -0.00055815    0.00033918
     atom    5 type  2   force =     0.00026325   -0.00006092    0.00024026
     atom    6 type  2   force =    -0.00041006   -0.00001632    0.00042052
     atom    7 type  2   force =    -0.00029007    0.00030504    0.00021423
     atom    8 type  2   force =    -0.00027353   -0.00017530    0.00032924
     atom    9 type  3   force =     0.00011765   -0.00044946    0.00016219
     atom   10 type  3   force =     0.00030683    0.00001661   -0.00052168
     atom   11 type  3   force =    -0.00015066   -0.00049144   -0.00070386
     atom   12 type  3   force =     0.00012206    0.00039764   -0.00025642
     atom   13 type  3   force =    -0.00033489    0.00012372   -0.00013660
     atom   14 type  3   force =     0.00082544    0.00003848   -0.00023824
     atom   15 type  3   force =    -0.00018758   -0.00000127   -0.00006399
     atom   16 type  3   force =     0.00050813   -0.00007498    0.00028945
     atom   17 type  3   force =    -0.00066091   -0.00038320   -0.00006914
     atom   18 type  3   force =    -0.00083993    0.00006797    0.00041756
     atom   19 type  3   force =     0.00066182    0.00034337   -0.00028263
     atom   20 type  4   force =    -0.00027310    0.00042884    0.00009279
     The non-local contrib.  to forces
     atom    1 type  1   force =     0.22119167    0.02966009    0.07870867
     atom    2 type  1   force =    -0.12908651    0.05941774   -0.01603182
     atom    3 type  2   force =     0.42510076    0.14667711    0.11594352
     atom    4 type  2   force =     0.08336571    0.73509394    0.17156999
     atom    5 type  2   force =    -0.16172804   -0.29166095   -0.09348566
     atom    6 type  2   force =     0.10245463   -0.33500536   -0.05399606
     atom    7 type  2   force =     0.02388876    0.08124210   -0.11047716
     atom    8 type  2   force =    -0.37108993    0.26424549   -0.03858746
     atom    9 type  3   force =     0.03139601   -0.05797339    0.03782876
     atom   10 type  3   force =     0.00204778    0.06307953    0.04682219
     atom   11 type  3   force =     0.00971993    0.06170498    0.00379741
     atom   12 type  3   force =     0.04420428   -0.06711611   -0.00462754
     atom   13 type  3   force =    -0.05712941   -0.05278318   -0.02025097
     atom   14 type  3   force =    -0.02874180    0.06250478   -0.03309089
     atom   15 type  3   force =     0.07106298    0.01519461    0.01510341
     atom   16 type  3   force =    -0.00075915   -0.05577846   -0.04811492
     atom   17 type  3   force =     0.01088684    0.07737804    0.01175522
     atom   18 type  3   force =    -0.05111990   -0.02561754    0.05048892
     atom   19 type  3   force =    -0.02737221   -0.00871074   -0.07100167
     atom   20 type  4   force =     0.01408063    0.06082864   -0.00904629
     The ionic contribution  to forces
     atom    1 type  1   force =    -5.01992838    1.84681823   -2.73422527
     atom    2 type  1   force =     7.73986953   -0.70031109    0.49089308
     atom    3 type  2   force =    -6.89093634    0.13202655   -4.16540390
     atom    4 type  2   force =     0.41160918   -7.81525880   -2.93551218
     atom    5 type  2   force =    -2.20960206   10.55776299    0.92580754
     atom    6 type  2   force =     5.71421429    9.08393804    2.38453293
     atom    7 type  2   force =    -6.26939113   -0.85748619    4.08649080
     atom    8 type  2   force =     8.47656389   -3.04316976    0.80887427
     atom    9 type  3   force =    -2.18601269    2.28912214   -2.06385737
     atom   10 type  3   force =    -1.26169967   -2.20280046   -2.54554455
     atom   11 type  3   force =     0.03876078   -2.48471306   -0.62652918
     atom   12 type  3   force =    -1.54847338    3.52681178    0.24053135
     atom   13 type  3   force =     2.46503792    2.81448783    0.92016961
     atom   14 type  3   force =    -0.31133419   -2.30488001    1.99582406
     atom   15 type  3   force =    -3.38425102   -0.59698221   -0.09127451
     atom   16 type  3   force =    -1.13416600    1.94931668    2.43097769
     atom   17 type  3   force =     1.13012420   -3.08898096   -0.30663176
     atom   18 type  3   force =     2.98446178    0.57109874   -1.80122258
     atom   19 type  3   force =     2.16572109   -0.05643384    2.76931730
     atom   20 type  4   force =    -0.91056782   -9.62036663    0.21678267
     The local contribution  to forces
     atom    1 type  1   force =     4.79968330   -1.87486529    2.65586736
     atom    2 type  1   force =    -7.60923277    0.64204753   -0.47464825
     atom    3 type  2   force =     6.47399985   -0.27668594    4.05281451
     atom    4 type  2   force =    -0.49452000    7.08740067    2.76580187
     atom    5 type  2   force =     2.36610606  -10.26873447   -0.83370811
     atom    6 type  2   force =    -5.81229042   -8.75308902   -2.33018925
     atom    7 type  2   force =     6.24600629    0.77811120   -3.97812781
     atom    8 type  2   force =    -8.11287798    2.78387558   -0.77077756
     atom    9 type  3   force =     2.15474263   -2.23160301    2.02619647
     atom   10 type  3   force =     1.25996369    2.13973931    2.49820699
     atom   11 type  3   force =    -0.04863597    2.42251959    0.62202681
     atom   12 type  3   force =     1.50439336   -3.45931289   -0.23616166
     atom   13 type  3   force =    -2.40824131   -2.76157489   -0.90005240
     atom   14 type  3   force =     0.34090338    2.24241634   -1.96297514
     atom   15 type  3   force =     3.31300751    0.58178451    0.07610796
     atom   16 type  3   force =     1.13543825   -1.89361842   -2.38257748
     atom   17 type  3   force =    -1.14166857    3.01121209    0.29480825
     atom   18 type  3   force =    -2.93417570   -0.54541811    1.75115051
     atom   19 type  3   force =    -2.13768103    0.06548270   -2.69859373
     atom   20 type  4   force =     0.89641120    9.56106294   -0.20777893
     The core correction contribution to forces
     atom    1 type  1   force =    -0.00059892   -0.00101355   -0.00066648
     atom    2 type  1   force =    -0.00104677   -0.00058128   -0.00018455
     atom    3 type  2   force =    -0.00796872   -0.00268497   -0.00331554
     atom    4 type  2   force =    -0.00100328   -0.00777828   -0.00154044
     atom    5 type  2   force =     0.00542341    0.00255092    0.00160631
     atom    6 type  2   force =    -0.00485464    0.00417240    0.00006342
     atom    7 type  2   force =    -0.00076930   -0.00156189    0.00231486
     atom    8 type  2   force =     0.00716197   -0.00515238    0.00082078
     atom    9 type  3   force =     0.00000000    0.00000000    0.00000000
     atom   10 type  3   force =     0.00000000    0.00000000    0.00000000
     atom   11 type  3   force =     0.00000000    0.00000000    0.00000000
     atom   12 type  3   force =     0.00000000    0.00000000    0.00000000
     atom   13 type  3   force =     0.00000000    0.00000000    0.00000000
     atom   14 type  3   force =     0.00000000    0.00000000    0.00000000
     atom   15 type  3   force =     0.00000000    0.00000000    0.00000000
     atom   16 type  3   force =     0.00000000    0.00000000    0.00000000
     atom   17 type  3   force =     0.00000000    0.00000000    0.00000000
     atom   18 type  3   force =     0.00000000    0.00000000    0.00000000
     atom   19 type  3   force =     0.00000000    0.00000000    0.00000000
     atom   20 type  4   force =    -0.00021551   -0.00109455    0.00013251
     The Hubbard contrib.    to forces
     atom    1 type  1   force =     0.00000000    0.00000000    0.00000000
     atom    2 type  1   force =     0.00000000    0.00000000    0.00000000
     atom    3 type  2   force =     0.00000000    0.00000000    0.00000000
     atom    4 type  2   force =     0.00000000    0.00000000    0.00000000
     atom    5 type  2   force =     0.00000000    0.00000000    0.00000000
     atom    6 type  2   force =     0.00000000    0.00000000    0.00000000
     atom    7 type  2   force =     0.00000000    0.00000000    0.00000000
     atom    8 type  2   force =     0.00000000    0.00000000    0.00000000
     atom    9 type  3   force =     0.00000000    0.00000000    0.00000000
     atom   10 type  3   force =     0.00000000    0.00000000    0.00000000
     atom   11 type  3   force =     0.00000000    0.00000000    0.00000000
     atom   12 type  3   force =     0.00000000    0.00000000    0.00000000
     atom   13 type  3   force =     0.00000000    0.00000000    0.00000000
     atom   14 type  3   force =     0.00000000    0.00000000    0.00000000
     atom   15 type  3   force =     0.00000000    0.00000000    0.00000000
     atom   16 type  3   force =     0.00000000    0.00000000    0.00000000
     atom   17 type  3   force =     0.00000000    0.00000000    0.00000000
     atom   18 type  3   force =     0.00000000    0.00000000    0.00000000
     atom   19 type  3   force =     0.00000000    0.00000000    0.00000000
     atom   20 type  4   force =     0.00000000    0.00000000    0.00000000
     The SCF correction term to forces
     atom    1 type  1   force =     0.00003722   -0.00003371    0.00000707
     atom    2 type  1   force =     0.00004168    0.00001874    0.00002968
     atom    3 type  2   force =    -0.00003686   -0.00000953   -0.00001629
     atom    4 type  2   force =     0.00008016   -0.00001861    0.00002148
     atom    5 type  2   force =     0.00006513    0.00001768    0.00002173
     atom    6 type  2   force =     0.00006733   -0.00003530    0.00001103
     atom    7 type  2   force =    -0.00002345   -0.00000309    0.00001510
     atom    8 type  2   force =    -0.00003024    0.00002287    0.00000076
     atom    9 type  3   force =    -0.00000706    0.00000188   -0.00000413
     atom   10 type  3   force =    -0.00000373   -0.00000468   -0.00000477
     atom   11 type  3   force =     0.00000583   -0.00000586    0.00000265
     atom   12 type  3   force =    -0.00000096    0.00001194    0.00000298
     atom   13 type  3   force =    -0.00000085   -0.00000895   -0.00000129
     atom   14 type  3   force =    -0.00000071   -0.00000554    0.00000528
     atom   15 type  3   force =    -0.00000581   -0.00000109    0.00000070
     atom   16 type  3   force =    -0.00000373    0.00000231    0.00000571
     atom   17 type  3   force =    -0.00000214    0.00000470    0.00000070
     atom   18 type  3   force =    -0.00000487    0.00000197    0.00000226
     atom   19 type  3   force =    -0.00000479    0.00000234   -0.00000299
     atom   20 type  4   force =     0.00001963   -0.00000447    0.00000438

     Total force =     0.002918     Total SCF correction =     0.000170


     Computing stress (Cartesian axis) and pressure


     negative rho (up, down):  8.927E-04 0.000E+00
          total   stress  (Ry/bohr**3)                   (kbar)     P=       -0.04
  -0.00000040   0.00000006   0.00000007           -0.06        0.01        0.01
   0.00000006  -0.00000025   0.00000006            0.01       -0.04        0.01
   0.00000007   0.00000006  -0.00000015            0.01        0.01       -0.02

     Energy error            =      1.3E-05 Ry
     Gradient error          =      8.4E-04 Ry/Bohr

     bfgs converged in  20 scf cycles and  19 bfgs steps
     (criteria: energy <  1.0E-04 Ry, force <  1.0E-03 Ry/Bohr)

     End of BFGS Geometry Optimization

     Final energy             =    -259.4291836883 Ry

     File ./plusCL4.bfgs deleted, as requested
Begin final coordinates

ATOMIC_POSITIONS (angstrom)
N             9.5800061321       10.0235494031        9.5933248149
N            11.6990715851        9.7222841661        9.9328469261
C             8.1599474829        9.7080387456        9.3493083346
C            10.5560764913        9.0965764829        9.5944314963
C            10.1116457365       11.2581554391        9.9321367448
C            11.4486115272       11.0710535206       10.1423745673
C             7.4057669950        9.3960324354       10.6363411362
C            12.9829703599        9.0382297933       10.0784269904
H             7.7263983965       10.5638429026        8.8137375966
H             8.1469893489        8.8347873196        8.6857691501
H            10.3795261520        7.9585890420        9.5250382861
H             9.5060200916       12.1538505796        9.9900659249
H            12.2286582667       11.7712862719       10.4145082895
H             7.8294375341        8.5043980655       11.1167817564
H             6.3561153821        9.1833176213       10.3946368453
H             7.4287617759       10.2412037551       11.3377241109
H            12.8187867722        7.9691657454        9.9069679696
H            13.7068859596        9.4259885561        9.3505284777
H            13.3648839888        9.1846460500       11.0959060859
Cl            9.8566200217        6.1820041050        9.8659944966
End final coordinates



     Writing all to output data dir ./plusCL4.save/

     init_run     :     46.99s CPU     48.91s WALL (       1 calls)
     electrons    :   5675.06s CPU   6070.73s WALL (      20 calls)
     update_pot   :    162.84s CPU    165.59s WALL (      19 calls)
     forces       :    540.86s CPU    571.28s WALL (      20 calls)
     stress       :   1736.01s CPU   1808.81s WALL (      20 calls)

     Called by init_run:
     wfcinit      :      3.21s CPU      3.30s WALL (       1 calls)
     potinit      :      5.55s CPU      5.91s WALL (       1 calls)
     hinit0       :      3.62s CPU      3.76s WALL (       1 calls)

     Called by electrons:
     c_bands      :    794.63s CPU    806.14s WALL (     127 calls)
     sum_band     :   2789.84s CPU   2991.30s WALL (     127 calls)
     v_of_rho     :    441.81s CPU    458.24s WALL (     137 calls)
     newd         :   1806.55s CPU   1950.94s WALL (     137 calls)
     PAW_pot      :     35.31s CPU     35.93s WALL (     156 calls)
     mix_rho      :     71.61s CPU     72.78s WALL (     127 calls)

     Called by c_bands:
     init_us_2    :      8.98s CPU      9.13s WALL (     274 calls)
     init_us_2:cp :      8.97s CPU      9.13s WALL (     274 calls)
     cegterg      :    778.59s CPU    789.86s WALL (     127 calls)

     Called by *egterg:
     cdiaghg      :      0.77s CPU      0.80s WALL (     475 calls)
     h_psi        :    678.76s CPU    689.00s WALL (     505 calls)
     s_psi        :     21.08s CPU     21.26s WALL (     505 calls)
     g_psi        :      2.69s CPU      2.72s WALL (     377 calls)

     Called by h_psi:
     h_psi:calbec :     18.40s CPU     18.60s WALL (     505 calls)
     vloc_psi     :    634.18s CPU    643.98s WALL (     505 calls)
     add_vuspsi   :     21.07s CPU     21.25s WALL (     505 calls)

     General routines
     calbec       :     28.03s CPU     28.35s WALL (     751 calls)
     fft          :    501.60s CPU    511.33s WALL (    2270 calls)
     ffts         :     13.30s CPU     13.46s WALL (     264 calls)
     fftw         :    456.35s CPU    463.98s WALL (   26437 calls)
     interpolate  :     38.35s CPU     38.81s WALL (     137 calls)

     Parallel routines

     PWSCF        :      2h20m CPU      2h29m WALL


   This run was terminated on:  13:28: 6  18Jun2025            

=------------------------------------------------------------------------------=
   JOB DONE.
=------------------------------------------------------------------------------=
