
     Program PWSCF v.7.2 starts on  4Feb2025 at 22: 9:41 

     This program is part of the open-source Quantum ESPRESSO suite
     for quantum simulation of materials; please cite
         "P. Giannozzi et al., J. Phys.:Condens. Matter 21 395502 (2009);
         "P. Giannozzi et al., J. Phys.:Condens. Matter 29 465901 (2017);
         "P. Giannozzi et al., J. Chem. Phys. 152 154105 (2020);
          URL http://www.quantum-espresso.org", 
     in publications or presentations arising from this work. More details at
     http://www.quantum-espresso.org/quote

     Parallel version (MPI), running on    20 processors

     MPI processes distributed on     1 nodes
     109379 MiB available memory on the printing compute node when the environment starts

     Reading input from pw.in
Warning: card &CELL ignored
Warning: card / ignored
Warning: card &FCP ignored
Warning: card / ignored
Warning: card &RISM ignored
Warning: card / ignored

     Current dimensions of program PWSCF are:
     Max number of different atomic species (ntypx) = 10
     Max number of k-points (npk) =  40000
     Max angular momentum in pseudopotentials (lmaxx) =  4
     file C.pbe-n-kjpaw_psl.1.0.0.UPF: wavefunction(s)  2S 2P renormalized
     file H.pbe-kjpaw_psl.1.0.0.UPF: wavefunction(s)  1S renormalized
     Message from routine setup:
     using ibrav=0 with symmetry is DISCOURAGED, use correct ibrav instead

     R & G space division:  proc/nbgrp/npool/nimage =      20
     Subspace diagonalization in iterative solution of the eigenvalue problem:
     a serial algorithm will be used


     Parallelization info
     --------------------
     sticks:   dense  smooth     PW     G-vecs:    dense   smooth      PW
     Min         402     160     42                59248    14980    2098
     Max         403     161     43                59259    14995    2111
     Sum        8041    3217    859              1185017   299779   42103

     Using Slab Decomposition



     bravais-lattice index     =            0
     lattice parameter (alat)  =      13.9462  a.u.
     unit-cell volume          =    4774.5365 (a.u.)^3
     number of atoms/cell      =           19
     number of atomic types    =            2
     number of electrons       =        73.00
     number of Kohn-Sham states=           44
     kinetic-energy cutoff     =      60.0000  Ry
     charge density cutoff     =     600.0000  Ry
     scf convergence threshold =      1.0E-06
     mixing beta               =       0.7000
     number of iterations used =            8  plain     mixing
     energy convergence thresh.=      1.0E-04
     force convergence thresh. =      1.0E-03
     Exchange-correlation= SLA  PW   PBX  PBC
                           (   1   4   3   4   0   0   0)
     nstep                     =           50


     celldm(1)=  13.946179  celldm(2)=   0.000000  celldm(3)=   0.000000
     celldm(4)=   0.000000  celldm(5)=   0.000000  celldm(6)=   0.000000

     crystal axes: (cart. coord. in units of alat)
               a(1) = (   1.000000   0.000000   0.000000 )  
               a(2) = (  -0.500000   0.866025   0.000000 )  
               a(3) = (   0.000000   0.000000   2.032520 )  

     reciprocal axes: (cart. coord. in units 2 pi/alat)
               b(1) = (  1.000000  0.577350 -0.000000 )  
               b(2) = (  0.000000  1.154701  0.000000 )  
               b(3) = (  0.000000 -0.000000  0.492000 )  


     PseudoPot. # 1 for C  read from file:
     /home/ebarquero/practicas/p2/pseudo/C.pbe-n-kjpaw_psl.1.0.0.UPF
     MD5 check sum: 5f16ad9a65e90284d1d834d4ab3b0f7d
     Pseudo is Projector augmented-wave + core cor, Zval =  4.0
     Generated using &quot;atomic&quot; code by A. Dal Corso  v.6.3
     Shape of augmentation charge: PSQ
     Using radial grid of 1073 points,  4 beta functions with: 
                l(1) =   0
                l(2) =   0
                l(3) =   1
                l(4) =   1
     Q(r) pseudized with 0 coefficients 


     PseudoPot. # 2 for H  read from file:
     /home/ebarquero/practicas/p2/pseudo/H.pbe-kjpaw_psl.1.0.0.UPF
     MD5 check sum: d81a744832360e4a8af0b0b5b123bc2a
     Pseudo is Projector augmented-wave, Zval =  1.0
     Generated using &quot;atomic&quot; code by A. Dal Corso  v.6.3MaX
     Shape of augmentation charge: PSQ
     Using radial grid of  929 points,  2 beta functions with: 
                l(1) =   0
                l(2) =   0
     Q(r) pseudized with 0 coefficients 


     atomic species   valence    mass     pseudopotential
        C              4.00    12.01100     C ( 1.00)
        H              1.00     1.00800     H ( 1.00)

      6 Sym. Ops. (no inversion) found



   Cartesian axes

     site n.     atom                  positions (alat units)
         1           C   tau(   1) = (   0.0000000   0.0000000   1.0155685  )
         2           C   tau(   2) = (   0.1666667   0.0962250   1.0155685  )
         3           C   tau(   3) = (  -0.1666667   0.2886751   1.0155685  )
         4           C   tau(   4) = (   0.0000000   0.3849002   1.0155685  )
         5           C   tau(   5) = (  -0.3333333   0.5773503   1.0155685  )
         6           C   tau(   6) = (  -0.1666667   0.6735753   1.0155685  )
         7           C   tau(   7) = (   0.3333333   0.0000000   1.0155685  )
         8           C   tau(   8) = (   0.5000000   0.0962250   1.0155685  )
         9           C   tau(   9) = (   0.1666667   0.2886751   1.0155685  )
        10           C   tau(  10) = (   0.3333333   0.3849002   1.0155685  )
        11           C   tau(  11) = (   0.0000000   0.5773503   1.0155685  )
        12           C   tau(  12) = (   0.1666667   0.6735753   1.0155685  )
        13           C   tau(  13) = (   0.6666667   0.0000000   1.0155685  )
        14           C   tau(  14) = (   0.8333333   0.0962250   1.0155685  )
        15           C   tau(  15) = (   0.5000000   0.2886751   1.0155685  )
        16           C   tau(  16) = (   0.6666667   0.3849002   1.0155685  )
        17           C   tau(  17) = (   0.3333333   0.5773503   1.0155685  )
        18           C   tau(  18) = (   0.5000000   0.6735753   1.0155685  )
        19           H   tau(  19) = (   0.0000000   0.0000000   1.1646199  )

     number of k points=     7  Methfessel-Paxton smearing, width (Ry)=  0.0200
                       cart. coord. in units 2pi/alat
        k(    1) = (   0.0000000   0.0000000   0.0000000), wk =   0.0740741
        k(    2) = (   0.0000000   0.0000000   0.1640000), wk =   0.1481481
        k(    3) = (   0.0000000   0.3849002   0.0000000), wk =   0.4444444
        k(    4) = (   0.0000000   0.3849002   0.1640000), wk =   0.4444444
        k(    5) = (   0.3333333   0.5773503   0.0000000), wk =   0.1481481
        k(    6) = (   0.3333333   0.5773503   0.1640000), wk =   0.2962963
        k(    7) = (   0.0000000  -0.3849002   0.1640000), wk =   0.4444444

     Dense  grid:  1185017 G-vectors     FFT dimensions: ( 120, 120, 225)

     Smooth grid:   299779 G-vectors     FFT dimensions: (  72,  72, 144)

     Estimated max dynamical RAM per process >     139.68 MB

     Estimated total dynamical RAM >       2.73 GB

     Initial potential from superposition of free atoms

     starting charge      72.9992, renormalised to      73.0000

     negative rho (up, down):  4.013E-05 0.000E+00
     Starting wfcs are   73 randomized atomic wfcs
     Checking if some PAW data can be deallocated... 

     total cpu time spent up to now is        5.9 secs

     Self-consistent Calculation

     iteration #  1     ecut=    60.00 Ry     beta= 0.70
     Davidson diagonalization with overlap
     ethr =  1.00E-02,  avg # of iterations =  2.3

     negative rho (up, down):  3.644E-05 0.000E+00

     total cpu time spent up to now is       10.8 secs

     total energy              =    -332.71361266 Ry
     estimated scf accuracy    <       1.81421904 Ry

     iteration #  2     ecut=    60.00 Ry     beta= 0.70
     Davidson diagonalization with overlap
     ethr =  2.49E-03,  avg # of iterations =  4.9

     negative rho (up, down):  4.408E-05 0.000E+00

     total cpu time spent up to now is       15.6 secs

     total energy              =    -332.95658866 Ry
     estimated scf accuracy    <       0.05336757 Ry

     iteration #  3     ecut=    60.00 Ry     beta= 0.70
     Davidson diagonalization with overlap
     ethr =  7.31E-05,  avg # of iterations = 12.6

     negative rho (up, down):  5.517E-05 0.000E+00

     total cpu time spent up to now is       22.0 secs

     total energy              =    -332.96265918 Ry
     estimated scf accuracy    <       0.03292266 Ry

     iteration #  4     ecut=    60.00 Ry     beta= 0.70
     Davidson diagonalization with overlap
     ethr =  4.51E-05,  avg # of iterations =  6.7

     negative rho (up, down):  5.067E-05 0.000E+00

     total cpu time spent up to now is       27.2 secs

     total energy              =    -332.97133535 Ry
     estimated scf accuracy    <       0.00545786 Ry

     iteration #  5     ecut=    60.00 Ry     beta= 0.70
     Davidson diagonalization with overlap
     ethr =  7.48E-06,  avg # of iterations =  3.9

     negative rho (up, down):  5.160E-05 0.000E+00

     total cpu time spent up to now is       31.1 secs

     total energy              =    -332.97236592 Ry
     estimated scf accuracy    <       0.00043059 Ry

     iteration #  6     ecut=    60.00 Ry     beta= 0.70
     Davidson diagonalization with overlap
     ethr =  5.90E-07,  avg # of iterations =  4.3

     negative rho (up, down):  5.220E-05 0.000E+00

     total cpu time spent up to now is       34.7 secs

     total energy              =    -332.97248081 Ry
     estimated scf accuracy    <       0.00001920 Ry

     iteration #  7     ecut=    60.00 Ry     beta= 0.70
     Davidson diagonalization with overlap
     ethr =  2.63E-08,  avg # of iterations =  5.4

     negative rho (up, down):  5.236E-05 0.000E+00

     total cpu time spent up to now is       38.5 secs

     total energy              =    -332.97248713 Ry
     estimated scf accuracy    <       0.00000253 Ry

     iteration #  8     ecut=    60.00 Ry     beta= 0.70
     Davidson diagonalization with overlap
     ethr =  3.46E-09,  avg # of iterations =  3.0

     negative rho (up, down):  5.244E-05 0.000E+00

     total cpu time spent up to now is       41.9 secs

     End of self-consistent calculation

          k = 0.0000 0.0000 0.0000 ( 37425 PWs)   bands (ev):

   -21.3769 -19.3862 -18.5911 -18.5911 -18.4488 -18.4488 -18.4051 -14.6077
   -14.2141 -14.2141 -14.1227 -12.2273 -12.2273 -11.6411 -11.3055 -11.3055
   -11.1700 -11.1700 -11.1331  -9.9921  -8.0004  -7.5392  -7.5392  -7.3773
    -7.2717  -7.2717  -7.2543  -6.2850  -6.2850  -6.1211  -6.1211  -6.0769
    -4.5984  -4.5984  -2.6724  -1.5996  -1.5996  -1.4854   0.9555   1.8466
     2.3180   2.6942   3.2522   3.2527

          k = 0.0000 0.0000 0.1640 ( 37504 PWs)   bands (ev):

   -21.3769 -19.3863 -18.5911 -18.5911 -18.4488 -18.4488 -18.4052 -14.6077
   -14.2141 -14.2141 -14.1227 -12.2273 -12.2273 -11.6411 -11.3055 -11.3055
   -11.1700 -11.1700 -11.1331  -9.9921  -8.0004  -7.5392  -7.5392  -7.3773
    -7.2717  -7.2717  -7.2543  -6.2850  -6.2850  -6.1211  -6.1211  -6.0769
    -4.5984  -4.5984  -2.6724  -1.5995  -1.5995  -1.4854   0.9608   1.8745
     2.1298   3.0245   3.2522   3.2523

          k = 0.0000 0.3849 0.0000 ( 37488 PWs)   bands (ev):

   -21.1423 -20.1345 -19.2971 -19.0925 -17.6834 -17.4025 -16.6757 -16.0491
   -15.8196 -14.0464 -13.5279 -13.4281 -12.5903 -12.5283 -10.9089 -10.7493
   -10.1875  -9.7704  -9.5888  -8.6895  -8.5865  -8.3444  -8.2143  -7.9501
    -7.7235  -7.6898  -7.2772  -6.8404  -6.3429  -5.7407  -5.6195  -5.1734
    -4.9916  -4.4734  -3.7307  -3.3481  -0.7415   0.1551   0.4720   1.2753
     1.7056   1.7681   2.6151   2.8255

          k = 0.0000 0.3849 0.1640 ( 37470 PWs)   bands (ev):

   -21.1423 -20.1345 -19.2971 -19.0925 -17.6834 -17.4025 -16.6757 -16.0491
   -15.8196 -14.0464 -13.5279 -13.4281 -12.5903 -12.5283 -10.9089 -10.7493
   -10.1875  -9.7704  -9.5888  -8.6894  -8.5865  -8.3444  -8.2143  -7.9501
    -7.7235  -7.6898  -7.2772  -6.8404  -6.3429  -5.7407  -5.6195  -5.1734
    -4.9916  -4.4734  -3.7307  -3.3481  -0.7415   0.1551   0.4720   1.2770
     1.7168   1.7681   2.5106   2.7846

          k = 0.3333 0.5774 0.0000 ( 37407 PWs)   bands (ev):

   -20.9260 -20.1828 -20.1777 -18.0663 -17.7093 -17.6751 -16.0150 -15.7251
   -15.5975 -14.7308 -14.6989 -14.6770 -11.5652 -11.3721 -11.1757 -10.0057
    -9.9550  -9.7043  -9.5935  -8.9800  -8.8978  -8.8510  -8.1224  -8.1061
    -7.3507  -7.2993  -7.2570  -6.4062  -6.3388  -6.2834  -6.1713  -5.3102
    -5.1977  -4.1520  -3.7313  -3.5852  -0.8342  -0.0390   0.0377   1.4138
     2.2161   2.3205   2.5072   2.7258

          k = 0.3333 0.5774 0.1640 ( 37485 PWs)   bands (ev):

   -20.9260 -20.1828 -20.1777 -18.0663 -17.7093 -17.6751 -16.0150 -15.7251
   -15.5975 -14.7308 -14.6989 -14.6770 -11.5652 -11.3721 -11.1757 -10.0057
    -9.9550  -9.7043  -9.5935  -8.9800  -8.8978  -8.8510  -8.1224  -8.1061
    -7.3507  -7.2993  -7.2570  -6.4062  -6.3388  -6.2834  -6.1713  -5.3102
    -5.1977  -4.1521  -3.7313  -3.5852  -0.8342  -0.0390   0.0377   1.4144
     2.2207   2.3204   2.5072   2.7572

          k = 0.0000-0.3849 0.1640 ( 37470 PWs)   bands (ev):

   -21.1423 -20.1345 -19.2971 -19.0925 -17.6834 -17.4025 -16.6757 -16.0491
   -15.8196 -14.0464 -13.5279 -13.4281 -12.5903 -12.5283 -10.9089 -10.7493
   -10.1875  -9.7704  -9.5888  -8.6894  -8.5865  -8.3444  -8.2143  -7.9501
    -7.7235  -7.6898  -7.2772  -6.8404  -6.3429  -5.7407  -5.6195  -5.1734
    -4.9916  -4.4734  -3.7307  -3.3481  -0.7415   0.1551   0.4720   1.2770
     1.7170   1.7681   2.5096   2.7859

     the Fermi energy is    -0.8286 ev

!    total energy              =    -332.97248746 Ry
     total all-electron energy =     -1372.726233 Ry
     estimated scf accuracy    <       0.00000044 Ry
     smearing contrib. (-TS)   =      -0.00392005 Ry
     internal energy E=F+TS    =    -332.96856742 Ry

     The total energy is F=E-TS. E is the sum of the following terms:
     one-electron contribution =   -1449.69174212 Ry
     hartree contribution      =     740.04281139 Ry
     xc contribution           =     -84.46078484 Ry
     ewald contribution        =     572.14938326 Ry
     one-center paw contrib.   =    -111.00823511 Ry

     convergence has been achieved in   8 iterations

     negative rho (up, down):  5.244E-05 0.000E+00

     Forces acting on atoms (cartesian axes, Ry/au):

     atom    1 type  1   force =     0.00000000   -0.00000000    0.07085334
     atom    2 type  1   force =     0.10196101    0.05886721   -0.04816777
     atom    3 type  1   force =    -0.00374291   -0.01717915   -0.00064934
     atom    4 type  1   force =     0.00000000    0.00865844   -0.00007032
     atom    5 type  1   force =    -0.01674903    0.00534812   -0.00064934
     atom    6 type  1   force =     0.00749843   -0.00432922   -0.00007032
     atom    7 type  1   force =    -0.01300613    0.01183103   -0.00064934
     atom    8 type  1   force =     0.00000000    0.00745948    0.00240210
     atom    9 type  1   force =     0.00374291   -0.01717915   -0.00064934
     atom   10 type  1   force =     0.00646010   -0.00372974    0.00240210
     atom   11 type  1   force =     0.00000000   -0.00000000    0.00038050
     atom   12 type  1   force =    -0.00749843   -0.00432922   -0.00007032
     atom   13 type  1   force =     0.01300613    0.01183103   -0.00064934
     atom   14 type  1   force =    -0.10196101    0.05886721   -0.04816777
     atom   15 type  1   force =     0.00000000    0.00000000   -0.00016659
     atom   16 type  1   force =    -0.00646010   -0.00372974    0.00240210
     atom   17 type  1   force =     0.01674903    0.00534812   -0.00064934
     atom   18 type  1   force =     0.00000000   -0.11773443   -0.04816777
     atom   19 type  2   force =     0.00000000    0.00000000    0.07033679
     The non-local contrib.  to forces
     atom    1 type  1   force =     0.00000000   -0.00000000    0.32772961
     atom    2 type  1   force =    -0.03686913   -0.02128640    0.01505831
     atom    3 type  1   force =     0.00352921   -0.03425621    0.00687817
     atom    4 type  1   force =     0.00000000   -0.00796240    0.00687361
     atom    5 type  1   force =    -0.02790215    0.02018449    0.00687817
     atom    6 type  1   force =    -0.00689564    0.00398120    0.00687361
     atom    7 type  1   force =    -0.03143135    0.01407172    0.00687817
     atom    8 type  1   force =     0.00000000   -0.00406510    0.00059817
     atom    9 type  1   force =    -0.00352921   -0.03425621    0.00687817
     atom   10 type  1   force =    -0.00352048    0.00203255    0.00059817
     atom   11 type  1   force =     0.00000000   -0.00000000    0.00631752
     atom   12 type  1   force =     0.00689564    0.00398120    0.00687361
     atom   13 type  1   force =     0.03143135    0.01407172    0.00687817
     atom   14 type  1   force =     0.03686913   -0.02128640    0.01505831
     atom   15 type  1   force =     0.00000000   -0.00000000    0.00575625
     atom   16 type  1   force =     0.00352048    0.00203255    0.00059817
     atom   17 type  1   force =     0.02790215    0.02018449    0.00687817
     atom   18 type  1   force =    -0.00000000    0.04257280    0.01505831
     atom   19 type  2   force =     0.00000000    0.00000000   -0.06873448
     The ionic contribution  to forces
     atom    1 type  1   force =    -0.00000000   -0.00000000   -1.87395895
     atom    2 type  1   force =     0.43906474    0.25349415   -0.45091470
     atom    3 type  1   force =    -0.10158775    0.17595515   -0.15987269
     atom    4 type  1   force =     0.00000000    0.14046316   -0.12465280
     atom    5 type  1   force =     0.10158775   -0.17595515   -0.15987269
     atom    6 type  1   force =     0.12164467   -0.07023158   -0.12465280
     atom    7 type  1   force =     0.20317551   -0.00000000   -0.15987269
     atom    8 type  1   force =    -0.00000000    0.01996049   -0.09837841
     atom    9 type  1   force =     0.10158775    0.17595515   -0.15987269
     atom   10 type  1   force =     0.01728629   -0.00998024   -0.09837841
     atom   11 type  1   force =     0.00000000    0.00000000   -0.08883318
     atom   12 type  1   force =    -0.12164467   -0.07023158   -0.12465280
     atom   13 type  1   force =    -0.20317551   -0.00000000   -0.15987269
     atom   14 type  1   force =    -0.43906474    0.25349415   -0.45091470
     atom   15 type  1   force =    -0.00000000    0.00000000   -0.08883318
     atom   16 type  1   force =    -0.01728629   -0.00998024   -0.09837841
     atom   17 type  1   force =    -0.10158775   -0.17595515   -0.15987269
     atom   18 type  1   force =    -0.00000000   -0.50698829   -0.45091470
     atom   19 type  2   force =     0.00000000   -0.00000000    5.03269916
     The local contribution  to forces
     atom    1 type  1   force =     0.00000000   -0.00000000    1.61755064
     atom    2 type  1   force =    -0.30109713   -0.17383851    0.38758878
     atom    3 type  1   force =     0.09463763   -0.15902647    0.15234028
     atom    4 type  1   force =     0.00000000   -0.12364515    0.11775424
     atom    5 type  1   force =    -0.09040215    0.16147183    0.15234028
     atom    6 type  1   force =    -0.10707984    0.06182258    0.11775424
     atom    7 type  1   force =    -0.18503978   -0.00244536    0.15234028
     atom    8 type  1   force =     0.00000000   -0.00899536    0.10014522
     atom    9 type  1   force =    -0.09463763   -0.15902647    0.15234028
     atom   10 type  1   force =    -0.00779021    0.00449768    0.10014522
     atom   11 type  1   force =     0.00000000    0.00000000    0.08299440
     atom   12 type  1   force =     0.10707984    0.06182258    0.11775424
     atom   13 type  1   force =     0.18503978   -0.00244536    0.15234028
     atom   14 type  1   force =     0.30109713   -0.17383851    0.38758878
     atom   15 type  1   force =     0.00000000    0.00000000    0.08300396
     atom   16 type  1   force =     0.00779021    0.00449768    0.10014522
     atom   17 type  1   force =     0.09040215    0.16147183    0.15234028
     atom   18 type  1   force =     0.00000000    0.34767702    0.38758878
     atom   19 type  2   force =    -0.00000000   -0.00000000   -4.89364981
     The core correction contribution to forces
     atom    1 type  1   force =     0.00000000   -0.00000000   -0.00081925
     atom    2 type  1   force =     0.00075507    0.00043594   -0.00011414
     atom    3 type  1   force =    -0.00000448    0.00047858   -0.00007184
     atom    4 type  1   force =     0.00000000    0.00012465   -0.00007925
     atom    5 type  1   force =     0.00041223   -0.00024317   -0.00007184
     atom    6 type  1   force =     0.00010795   -0.00006233   -0.00007925
     atom    7 type  1   force =     0.00041671   -0.00023541   -0.00007184
     atom    8 type  1   force =     0.00000000    0.00010528    0.00002645
     atom    9 type  1   force =     0.00000448    0.00047858   -0.00007184
     atom   10 type  1   force =     0.00009118   -0.00005264    0.00002645
     atom   11 type  1   force =     0.00000000   -0.00000000   -0.00010131
     atom   12 type  1   force =    -0.00010795   -0.00006233   -0.00007925
     atom   13 type  1   force =    -0.00041671   -0.00023541   -0.00007184
     atom   14 type  1   force =    -0.00075507    0.00043594   -0.00011414
     atom   15 type  1   force =     0.00000000   -0.00000000   -0.00008356
     atom   16 type  1   force =    -0.00009118   -0.00005264    0.00002645
     atom   17 type  1   force =    -0.00041223   -0.00024317   -0.00007184
     atom   18 type  1   force =    -0.00000000   -0.00087188   -0.00011414
     atom   19 type  2   force =     0.00000000    0.00000000    0.00000000
     The Hubbard contrib.    to forces
     atom    1 type  1   force =     0.00000000    0.00000000    0.00000000
     atom    2 type  1   force =     0.00000000    0.00000000    0.00000000
     atom    3 type  1   force =     0.00000000    0.00000000    0.00000000
     atom    4 type  1   force =     0.00000000    0.00000000    0.00000000
     atom    5 type  1   force =     0.00000000    0.00000000    0.00000000
     atom    6 type  1   force =     0.00000000    0.00000000    0.00000000
     atom    7 type  1   force =     0.00000000    0.00000000    0.00000000
     atom    8 type  1   force =     0.00000000    0.00000000    0.00000000
     atom    9 type  1   force =     0.00000000    0.00000000    0.00000000
     atom   10 type  1   force =     0.00000000    0.00000000    0.00000000
     atom   11 type  1   force =     0.00000000    0.00000000    0.00000000
     atom   12 type  1   force =     0.00000000    0.00000000    0.00000000
     atom   13 type  1   force =     0.00000000    0.00000000    0.00000000
     atom   14 type  1   force =     0.00000000    0.00000000    0.00000000
     atom   15 type  1   force =     0.00000000    0.00000000    0.00000000
     atom   16 type  1   force =     0.00000000    0.00000000    0.00000000
     atom   17 type  1   force =     0.00000000    0.00000000    0.00000000
     atom   18 type  1   force =     0.00000000    0.00000000    0.00000000
     atom   19 type  2   force =     0.00000000    0.00000000    0.00000000
     The SCF correction term to forces
     atom    1 type  1   force =    -0.00000000    0.00000000    0.00035168
     atom    2 type  1   force =     0.00010745    0.00006204    0.00021437
     atom    3 type  1   force =    -0.00031752   -0.00033020    0.00007712
     atom    4 type  1   force =     0.00000000   -0.00032182    0.00003428
     atom    5 type  1   force =    -0.00044472   -0.00010988    0.00007712
     atom    6 type  1   force =    -0.00027871    0.00016091    0.00003428
     atom    7 type  1   force =    -0.00012720    0.00044008    0.00007712
     atom    8 type  1   force =    -0.00000000    0.00045417    0.00001107
     atom    9 type  1   force =     0.00031752   -0.00033020    0.00007712
     atom   10 type  1   force =     0.00039332   -0.00022709    0.00001107
     atom   11 type  1   force =    -0.00000000   -0.00000000    0.00000345
     atom   12 type  1   force =     0.00027871    0.00016091    0.00003428
     atom   13 type  1   force =     0.00012720    0.00044008    0.00007712
     atom   14 type  1   force =    -0.00010745    0.00006204    0.00021437
     atom   15 type  1   force =     0.00000000    0.00000000   -0.00000967
     atom   16 type  1   force =    -0.00039332   -0.00022709    0.00001107
     atom   17 type  1   force =     0.00044472   -0.00010988    0.00007712
     atom   18 type  1   force =     0.00000000   -0.00012408    0.00021437
     atom   19 type  2   force =     0.00000000    0.00000000    0.00002231

     Total force =     0.246533     Total SCF correction =     0.001593


     Computing stress (Cartesian axis) and pressure


     negative rho (up, down):  5.244E-05 0.000E+00
          total   stress  (Ry/bohr**3)                   (kbar)     P=       14.67
   0.00013564   0.00000000   0.00000000           19.95        0.00        0.00
   0.00000000   0.00013564  -0.00000000            0.00       19.95       -0.00
   0.00000000  -0.00000000   0.00002784            0.00       -0.00        4.10


     BFGS Geometry Optimization
     Energy error            =      0.0E+00 Ry
     Gradient error          =      1.2E-01 Ry/Bohr

     number of scf cycles    =   1
     number of bfgs steps    =   0

     energy             new  =    -332.9724874621 Ry

     new trust radius        =       0.1272066422 bohr
     new conv_thr            =       0.0000010000 Ry


ATOMIC_POSITIONS (angstrom)
C             0.0000000000       -0.0000000000        7.5323891397
C             1.2839554412        0.7412920196        7.4694058831
C            -1.2319806621        2.1213316787        7.4945515505
C             0.0000000000        2.8451451740        7.4948579572
C            -2.4688632074        4.2636750903        7.4945515505
C            -1.2260320019        4.9686948929        7.4948579572
C             2.4531174546        0.0062607110        7.4945515505
C             3.6900000000        0.7140882178        7.4961663042
C             1.2319806621        2.1213316787        7.4945515505
C             2.4634185372        2.8385896310        7.4961663042
C             0.0000000000        4.2608449866        7.4950965198
C             1.2260320019        4.9686948929        7.4948579572
C             4.9268825454        0.0062607110        7.4945515505
C             6.0960445588        0.7412920196        7.4694058831
C             3.6900000000        2.1304224933        7.4948070131
C             4.9165814628        2.8385896310        7.4961663042
C             2.4688632074        4.2636750903        7.4945515505
C             3.6900000000        4.9086834407        7.4694058831
H             0.0000000000        0.0000000000        8.6321157948



     Writing config-only to output data dir ./graphene_h_over_c.save/
     NEW-OLD atomic charge density approx. for the potential

     negative rho (up, down):  5.005E-05 0.000E+00

     total cpu time spent up to now is       61.1 secs

     Self-consistent Calculation

     iteration #  1     ecut=    60.00 Ry     beta= 0.70
     Davidson diagonalization with overlap
     ethr =  1.00E-06,  avg # of iterations = 11.0

     negative rho (up, down):  5.267E-05 0.000E+00

     total cpu time spent up to now is       71.4 secs

     total energy              =    -332.98807282 Ry
     estimated scf accuracy    <       0.01863899 Ry

     iteration #  2     ecut=    60.00 Ry     beta= 0.70
     Davidson diagonalization with overlap
     ethr =  2.55E-05,  avg # of iterations =  3.0

     negative rho (up, down):  8.121E-05 0.000E+00

     total cpu time spent up to now is       76.2 secs

     total energy              =    -332.99172151 Ry
     estimated scf accuracy    <       0.01177615 Ry

     iteration #  3     ecut=    60.00 Ry     beta= 0.70
     Davidson diagonalization with overlap
     ethr =  1.61E-05,  avg # of iterations =  4.9

     negative rho (up, down):  7.061E-05 0.000E+00

     total cpu time spent up to now is       80.9 secs

     total energy              =    -332.99411792 Ry
     estimated scf accuracy    <       0.00125612 Ry

     iteration #  4     ecut=    60.00 Ry     beta= 0.70
     Davidson diagonalization with overlap
     ethr =  1.72E-06,  avg # of iterations =  5.9

     negative rho (up, down):  5.560E-05 0.000E+00

     total cpu time spent up to now is       85.1 secs

     total energy              =    -332.99449529 Ry
     estimated scf accuracy    <       0.00012878 Ry

     iteration #  5     ecut=    60.00 Ry     beta= 0.70
     Davidson diagonalization with overlap
     ethr =  1.76E-07,  avg # of iterations =  2.6

     negative rho (up, down):  5.464E-05 0.000E+00

     total cpu time spent up to now is       88.0 secs

     total energy              =    -332.99451171 Ry
     estimated scf accuracy    <       0.00000881 Ry

     iteration #  6     ecut=    60.00 Ry     beta= 0.70
     Davidson diagonalization with overlap
     ethr =  1.21E-08,  avg # of iterations =  3.3

     negative rho (up, down):  5.459E-05 0.000E+00

     total cpu time spent up to now is       91.6 secs

     End of self-consistent calculation

          k = 0.0000 0.0000 0.0000 ( 37425 PWs)   bands (ev):

   -21.2395 -18.8658 -18.7268 -18.7268 -18.5074 -18.4557 -18.4557 -14.4686
   -14.2934 -14.1735 -14.1735 -12.1949 -12.1949 -11.6270 -11.4046 -11.4046
   -11.1962 -11.0456 -11.0456  -9.6906  -7.8269  -7.6999  -7.4304  -7.4304
    -7.2240  -7.2240  -7.1815  -6.4151  -6.4151  -6.1567  -6.1105  -6.1105
    -4.5548  -4.5548  -2.9508  -1.5661  -1.5661  -1.5310   0.9425   1.7824
     2.3237   2.7088   3.3396   3.3397

          k = 0.0000 0.0000 0.1640 ( 37504 PWs)   bands (ev):

   -21.2395 -18.8658 -18.7268 -18.7268 -18.5074 -18.4557 -18.4557 -14.4686
   -14.2934 -14.1735 -14.1735 -12.1949 -12.1949 -11.6270 -11.4046 -11.4046
   -11.1962 -11.0456 -11.0456  -9.6906  -7.8269  -7.6999  -7.4304  -7.4304
    -7.2240  -7.2240  -7.1815  -6.4151  -6.4151  -6.1568  -6.1105  -6.1105
    -4.5548  -4.5548  -2.9508  -1.5661  -1.5661  -1.5310   0.9469   1.8143
     2.1276   3.0503   3.3397   3.3401

          k = 0.0000 0.3849 0.0000 ( 37488 PWs)   bands (ev):

   -20.9561 -20.0669 -19.2084 -19.1697 -17.5576 -17.4753 -16.7004 -15.9619
   -15.8929 -14.0666 -13.5042 -13.4049 -12.6000 -12.5351 -10.7908 -10.7815
   -10.0728  -9.7464  -9.4215  -8.6829  -8.6108  -8.2920  -8.2021  -7.9218
    -7.7211  -7.6818  -7.2769  -6.9252  -6.3148  -5.7239  -5.6596  -5.1485
    -5.0121  -4.5315  -3.8196  -3.3784  -1.0286   0.1936   0.5725   1.3172
     1.7811   1.8283   2.6560   2.8522

          k = 0.0000 0.3849 0.1640 ( 37470 PWs)   bands (ev):

   -20.9561 -20.0669 -19.2084 -19.1697 -17.5576 -17.4753 -16.7004 -15.9619
   -15.8929 -14.0666 -13.5042 -13.4049 -12.6000 -12.5351 -10.7908 -10.7815
   -10.0728  -9.7464  -9.4215  -8.6829  -8.6108  -8.2920  -8.2021  -7.9218
    -7.7211  -7.6818  -7.2769  -6.9252  -6.3148  -5.7239  -5.6596  -5.1485
    -5.0121  -4.5316  -3.8197  -3.3784  -1.0286   0.1936   0.5726   1.3187
     1.7973   1.8283   2.5148   2.8394

          k = 0.3333 0.5774 0.0000 ( 37407 PWs)   bands (ev):

   -20.5499 -20.2971 -20.2124 -17.9223 -17.7877 -17.6542 -15.8242 -15.8219
   -15.6902 -14.8656 -14.6315 -14.6136 -11.5958 -11.3061 -11.1657  -9.8932
    -9.7261  -9.7229  -9.5717  -8.8982  -8.8835  -8.8095  -8.2101  -8.1538
    -7.5562  -7.2313  -7.0424  -6.5913  -6.3555  -6.1321  -6.0425  -5.4659
    -5.1989  -4.1842  -3.8038  -3.6331  -1.1681   0.0984   0.1020   1.4107
     2.3142   2.4693   2.5687   2.7129

          k = 0.3333 0.5774 0.1640 ( 37485 PWs)   bands (ev):

   -20.5499 -20.2971 -20.2124 -17.9223 -17.7877 -17.6542 -15.8242 -15.8219
   -15.6902 -14.8656 -14.6315 -14.6136 -11.5959 -11.3061 -11.1657  -9.8932
    -9.7261  -9.7229  -9.5717  -8.8982  -8.8835  -8.8095  -8.2101  -8.1538
    -7.5562  -7.2314  -7.0424  -6.5913  -6.3555  -6.1321  -6.0425  -5.4659
    -5.1989  -4.1842  -3.8038  -3.6331  -1.1681   0.0985   0.1021   1.4111
     2.3218   2.4694   2.5686   2.7439

          k = 0.0000-0.3849 0.1640 ( 37470 PWs)   bands (ev):

   -20.9561 -20.0669 -19.2084 -19.1697 -17.5576 -17.4753 -16.7004 -15.9619
   -15.8929 -14.0666 -13.5042 -13.4049 -12.6000 -12.5351 -10.7908 -10.7815
   -10.0728  -9.7464  -9.4215  -8.6829  -8.6108  -8.2920  -8.2021  -7.9218
    -7.7211  -7.6818  -7.2769  -6.9252  -6.3148  -5.7239  -5.6596  -5.1485
    -5.0121  -4.5316  -3.8197  -3.3784  -1.0286   0.1936   0.5726   1.3186
     1.7976   1.8283   2.5133   2.8406

     the Fermi energy is    -1.1327 ev

!    total energy              =    -332.99451461 Ry
     total all-electron energy =     -1372.748260 Ry
     estimated scf accuracy    <       0.00000067 Ry
     smearing contrib. (-TS)   =      -0.00284289 Ry
     internal energy E=F+TS    =    -332.99167172 Ry

     The total energy is F=E-TS. E is the sum of the following terms:
     one-electron contribution =   -1449.09252483 Ry
     hartree contribution      =     739.78653001 Ry
     xc contribution           =     -84.47885303 Ry
     ewald contribution        =     571.80429986 Ry
     one-center paw contrib.   =    -111.01112373 Ry

     convergence has been achieved in   6 iterations

     negative rho (up, down):  5.459E-05 0.000E+00

     Forces acting on atoms (cartesian axes, Ry/au):

     atom    1 type  1   force =     0.00000000   -0.00000000    0.05361003
     atom    2 type  1   force =    -0.05376269   -0.03103990   -0.02745867
     atom    3 type  1   force =    -0.02156703    0.05060158   -0.00555661
     atom    4 type  1   force =    -0.00000000   -0.02376357    0.00091279
     atom    5 type  1   force =     0.03303874   -0.04397838   -0.00555661
     atom    6 type  1   force =    -0.02057985    0.01188178    0.00091279
     atom    7 type  1   force =     0.05460577   -0.00662320   -0.00555661
     atom    8 type  1   force =    -0.00000000   -0.00775769    0.00134761
     atom    9 type  1   force =     0.02156703    0.05060158   -0.00555661
     atom   10 type  1   force =    -0.00671836    0.00387884    0.00134761
     atom   11 type  1   force =     0.00000000   -0.00000000    0.00293970
     atom   12 type  1   force =     0.02057985    0.01188178    0.00091279
     atom   13 type  1   force =    -0.05460577   -0.00662320   -0.00555661
     atom   14 type  1   force =     0.05376269   -0.03103990   -0.02745867
     atom   15 type  1   force =     0.00000000    0.00000000    0.00003289
     atom   16 type  1   force =     0.00671836    0.00387884    0.00134761
     atom   17 type  1   force =    -0.03303874   -0.04397838   -0.00555661
     atom   18 type  1   force =     0.00000000    0.06207981   -0.02745867
     atom   19 type  2   force =     0.00000000    0.00000000    0.05235188
     The non-local contrib.  to forces
     atom    1 type  1   force =     0.00000000   -0.00000000    0.22874474
     atom    2 type  1   force =    -0.15959653   -0.09214310    0.02683495
     atom    3 type  1   force =    -0.00587465    0.03750990   -0.00759292
     atom    4 type  1   force =     0.00000000   -0.03490548    0.01166524
     atom    5 type  1   force =     0.02954720   -0.02384254   -0.00759292
     atom    6 type  1   force =    -0.03022903    0.01745274    0.01166524
     atom    7 type  1   force =     0.03542185   -0.01366736   -0.00759292
     atom    8 type  1   force =    -0.00000000   -0.00650313    0.00115531
     atom    9 type  1   force =     0.00587465    0.03750990   -0.00759292
     atom   10 type  1   force =    -0.00563188    0.00325157    0.00115531
     atom   11 type  1   force =     0.00000000    0.00000000    0.00847373
     atom   12 type  1   force =     0.03022903    0.01745274    0.01166524
     atom   13 type  1   force =    -0.03542185   -0.01366736   -0.00759292
     atom   14 type  1   force =     0.15959653   -0.09214310    0.02683495
     atom   15 type  1   force =     0.00000000    0.00000000    0.00558256
     atom   16 type  1   force =     0.00563188    0.00325157    0.00115531
     atom   17 type  1   force =    -0.02954720   -0.02384254   -0.00759292
     atom   18 type  1   force =    -0.00000000    0.18428620    0.02683495
     atom   19 type  2   force =     0.00000000   -0.00000000   -0.07016140
     The ionic contribution  to forces
     atom    1 type  1   force =     0.00000000   -0.00000000   -1.03899665
     atom    2 type  1   force =    -0.29378054   -0.16961427   -0.94063630
     atom    3 type  1   force =     0.15685478    0.44697970   -0.08887562
     atom    4 type  1   force =     0.00000000    0.04816261   -0.10158315
     atom    5 type  1   force =     0.46552316   -0.08764962   -0.08887562
     atom    6 type  1   force =     0.04171005   -0.02408131   -0.10158315
     atom    7 type  1   force =     0.30866838   -0.35933007   -0.08887562
     atom    8 type  1   force =     0.00000000   -0.14576414   -0.04365796
     atom    9 type  1   force =    -0.15685478    0.44697970   -0.08887562
     atom   10 type  1   force =    -0.12623545    0.07288207   -0.04365796
     atom   11 type  1   force =     0.00000000    0.00000000   -0.07030956
     atom   12 type  1   force =    -0.04171005   -0.02408131   -0.10158315
     atom   13 type  1   force =    -0.30866838   -0.35933007   -0.08887562
     atom   14 type  1   force =     0.29378054   -0.16961427   -0.94063630
     atom   15 type  1   force =    -0.00000000    0.00000000   -0.07413651
     atom   16 type  1   force =     0.12623545    0.07288207   -0.04365796
     atom   17 type  1   force =    -0.46552316   -0.08764962   -0.08887562
     atom   18 type  1   force =     0.00000000    0.33922855   -0.94063630
     atom   19 type  2   force =     0.00000000   -0.00000000    4.97432866
     The local contribution  to forces
     atom    1 type  1   force =     0.00000000   -0.00000000    0.86454843
     atom    2 type  1   force =     0.39542188    0.22829693    0.88685675
     atom    3 type  1   force =    -0.17253199   -0.43219425    0.09132637
     atom    4 type  1   force =     0.00000000   -0.03819903    0.09149246
     atom    5 type  1   force =    -0.46055720    0.06668004    0.09132637
     atom    6 type  1   force =    -0.03308133    0.01909951    0.09149246
     atom    7 type  1   force =    -0.28802521    0.36551421    0.09132637
     atom    8 type  1   force =    -0.00000000    0.14449775    0.04436719
     atom    9 type  1   force =     0.17253199   -0.43219425    0.09132637
     atom   10 type  1   force =     0.12513872   -0.07224887    0.04436719
     atom   11 type  1   force =    -0.00000000    0.00000000    0.06541408
     atom   12 type  1   force =     0.03308133    0.01909951    0.09149246
     atom   13 type  1   force =     0.28802521    0.36551421    0.09132637
     atom   14 type  1   force =    -0.39542188    0.22829693    0.88685675
     atom   15 type  1   force =     0.00000000    0.00000000    0.06917582
     atom   16 type  1   force =    -0.12513872   -0.07224887    0.04436719
     atom   17 type  1   force =     0.46055720    0.06668004    0.09132637
     atom   18 type  1   force =    -0.00000000   -0.45659386    0.88685675
     atom   19 type  2   force =    -0.00000000   -0.00000000   -4.85178471
     The core correction contribution to forces
     atom    1 type  1   force =     0.00000000   -0.00000000    0.00007027
     atom    2 type  1   force =     0.00433202    0.00250109    0.00005116
     atom    3 type  1   force =    -0.00029238   -0.00177414    0.00007794
     atom    4 type  1   force =     0.00000000    0.00078999   -0.00017182
     atom    5 type  1   force =    -0.00168264    0.00063387    0.00007794
     atom    6 type  1   force =     0.00068415   -0.00039500   -0.00017182
     atom    7 type  1   force =    -0.00139026    0.00114028    0.00007794
     atom    8 type  1   force =    -0.00000000    0.00035335   -0.00001430
     atom    9 type  1   force =     0.00029238   -0.00177414    0.00007794
     atom   10 type  1   force =     0.00030601   -0.00017668   -0.00001430
     atom   11 type  1   force =    -0.00000000   -0.00000000   -0.00013169
     atom   12 type  1   force =    -0.00068415   -0.00039500   -0.00017182
     atom   13 type  1   force =     0.00139026    0.00114028    0.00007794
     atom   14 type  1   force =    -0.00433202    0.00250109    0.00005116
     atom   15 type  1   force =    -0.00000000   -0.00000000   -0.00006687
     atom   16 type  1   force =    -0.00030601   -0.00017668   -0.00001430
     atom   17 type  1   force =     0.00168264    0.00063387    0.00007794
     atom   18 type  1   force =    -0.00000000   -0.00500219    0.00005116
     atom   19 type  2   force =     0.00000000    0.00000000    0.00000000
     The Hubbard contrib.    to forces
     atom    1 type  1   force =     0.00000000    0.00000000    0.00000000
     atom    2 type  1   force =     0.00000000    0.00000000    0.00000000
     atom    3 type  1   force =     0.00000000    0.00000000    0.00000000
     atom    4 type  1   force =     0.00000000    0.00000000    0.00000000
     atom    5 type  1   force =     0.00000000    0.00000000    0.00000000
     atom    6 type  1   force =     0.00000000    0.00000000    0.00000000
     atom    7 type  1   force =     0.00000000    0.00000000    0.00000000
     atom    8 type  1   force =     0.00000000    0.00000000    0.00000000
     atom    9 type  1   force =     0.00000000    0.00000000    0.00000000
     atom   10 type  1   force =     0.00000000    0.00000000    0.00000000
     atom   11 type  1   force =     0.00000000    0.00000000    0.00000000
     atom   12 type  1   force =     0.00000000    0.00000000    0.00000000
     atom   13 type  1   force =     0.00000000    0.00000000    0.00000000
     atom   14 type  1   force =     0.00000000    0.00000000    0.00000000
     atom   15 type  1   force =     0.00000000    0.00000000    0.00000000
     atom   16 type  1   force =     0.00000000    0.00000000    0.00000000
     atom   17 type  1   force =     0.00000000    0.00000000    0.00000000
     atom   18 type  1   force =     0.00000000    0.00000000    0.00000000
     atom   19 type  2   force =     0.00000000    0.00000000    0.00000000
     The SCF correction term to forces
     atom    1 type  1   force =    -0.00000000    0.00000000   -0.00075054
     atom    2 type  1   force =    -0.00013952   -0.00008055   -0.00055902
     atom    3 type  1   force =     0.00027720    0.00008038   -0.00048616
     atom    4 type  1   force =     0.00000000    0.00038833   -0.00048372
     atom    5 type  1   force =     0.00020821    0.00019987   -0.00048616
     atom    6 type  1   force =     0.00033630   -0.00019417   -0.00048372
     atom    7 type  1   force =    -0.00006899   -0.00028025   -0.00048616
     atom    8 type  1   force =    -0.00000000   -0.00034152   -0.00049641
     atom    9 type  1   force =    -0.00027720    0.00008038   -0.00048616
     atom   10 type  1   force =    -0.00029576    0.00017076   -0.00049641
     atom   11 type  1   force =     0.00000000    0.00000000   -0.00050064
     atom   12 type  1   force =    -0.00033630   -0.00019417   -0.00048372
     atom   13 type  1   force =     0.00006899   -0.00028025   -0.00048616
     atom   14 type  1   force =     0.00013952   -0.00008055   -0.00055902
     atom   15 type  1   force =     0.00000000    0.00000000   -0.00051588
     atom   16 type  1   force =     0.00029576    0.00017076   -0.00049641
     atom   17 type  1   force =    -0.00020821    0.00019987   -0.00048616
     atom   18 type  1   force =    -0.00000000    0.00016110   -0.00055902
     atom   19 type  2   force =     0.00000000    0.00000000   -0.00002444

     Total force =     0.199170     Total SCF correction =     0.002501


     Computing stress (Cartesian axis) and pressure


     negative rho (up, down):  5.459E-05 0.000E+00
          total   stress  (Ry/bohr**3)                   (kbar)     P=       15.70
   0.00014895   0.00000000   0.00000000           21.91        0.00        0.00
   0.00000000   0.00014895  -0.00000000            0.00       21.91       -0.00
   0.00000000  -0.00000000   0.00002228            0.00       -0.00        3.28

     Energy error            =      2.2E-02 Ry
     Gradient error          =      6.2E-02 Ry/Bohr

     number of scf cycles    =   2
     number of bfgs steps    =   1

     energy             old  =    -332.9724874621 Ry
     energy             new  =    -332.9945146101 Ry

     CASE: energy            _new < energy            _old

     new trust radius        =       0.0683912593 bohr
     new conv_thr            =       0.0000006208 Ry


ATOMIC_POSITIONS (angstrom)
C             0.0000000000       -0.0000000000        7.5685802355
C             1.2811749648        0.7396867108        7.4485684181
C            -1.2417438731        2.1392098838        7.4920971358
C             0.0000000000        2.8368636217        7.4952268615
C            -2.4582618332        4.2462807989        7.4920971358
C            -1.2332040365        4.9728356690        7.4952268615
C             2.4734820399        0.0057767972        7.4920971358
C             3.6900000000        0.7122820864        7.4971963451
C             1.2417438731        2.1392098838        7.4920971358
C             2.4618543815        2.8394926967        7.4971963451
C             0.0000000000        4.2608449866        7.4964021761
C             1.2332040365        4.9728356690        7.4952268615
C             4.9065179601        0.0057767972        7.4920971358
C             6.0988250352        0.7396867108        7.4485684181
C             3.6900000000        2.1304224933        7.4947885290
C             4.9181456185        2.8394926967        7.4971963451
C             2.4582618332        4.2462807989        7.4920971358
C             3.6900000000        4.9118940583        7.4485684181
H             0.0000000000        0.0000000000        8.6676795740



     Writing config-only to output data dir ./graphene_h_over_c.save/
     NEW-OLD atomic charge density approx. for the potential

     negative rho (up, down):  5.307E-05 0.000E+00

     total cpu time spent up to now is      110.6 secs

     Self-consistent Calculation

     iteration #  1     ecut=    60.00 Ry     beta= 0.70
     Davidson diagonalization with overlap
     ethr =  1.00E-06,  avg # of iterations =  8.9

     negative rho (up, down):  5.279E-05 0.000E+00

     total cpu time spent up to now is      119.4 secs

     total energy              =    -333.00735414 Ry
     estimated scf accuracy    <       0.00386721 Ry

     iteration #  2     ecut=    60.00 Ry     beta= 0.70
     Davidson diagonalization with overlap
     ethr =  5.30E-06,  avg # of iterations =  4.0

     negative rho (up, down):  6.654E-05 0.000E+00

     total cpu time spent up to now is      124.4 secs

     total energy              =    -333.00802109 Ry
     estimated scf accuracy    <       0.00242827 Ry

     iteration #  3     ecut=    60.00 Ry     beta= 0.70
     Davidson diagonalization with overlap
     ethr =  3.33E-06,  avg # of iterations =  6.0

     negative rho (up, down):  5.913E-05 0.000E+00

     total cpu time spent up to now is      129.4 secs

     total energy              =    -333.00854693 Ry
     estimated scf accuracy    <       0.00026940 Ry

     iteration #  4     ecut=    60.00 Ry     beta= 0.70
     Davidson diagonalization with overlap
     ethr =  3.69E-07,  avg # of iterations =  3.1

     negative rho (up, down):  5.372E-05 0.000E+00

     total cpu time spent up to now is      134.0 secs

     total energy              =    -333.00862165 Ry
     estimated scf accuracy    <       0.00003249 Ry

     iteration #  5     ecut=    60.00 Ry     beta= 0.70
     Davidson diagonalization with overlap
     ethr =  4.45E-08,  avg # of iterations =  3.1

     negative rho (up, down):  5.326E-05 0.000E+00

     total cpu time spent up to now is      138.2 secs

     total energy              =    -333.00862718 Ry
     estimated scf accuracy    <       0.00000128 Ry

     iteration #  6     ecut=    60.00 Ry     beta= 0.70
     Davidson diagonalization with overlap
     ethr =  1.76E-09,  avg # of iterations =  3.3

     negative rho (up, down):  5.321E-05 0.000E+00

     total cpu time spent up to now is      143.1 secs

     End of self-consistent calculation

          k = 0.0000 0.0000 0.0000 ( 37425 PWs)   bands (ev):

   -21.2124 -18.7902 -18.6720 -18.6720 -18.5142 -18.5142 -18.4970 -14.3930
   -14.2976 -14.1756 -14.1756 -12.1706 -12.1706 -11.6331 -11.3352 -11.3352
   -11.1890 -11.0971 -11.0971  -9.6728  -7.9293  -7.5135  -7.4086  -7.4013
    -7.4013  -7.2090  -7.2090  -6.3268  -6.3268  -6.1908  -6.1908  -6.1403
    -4.5634  -4.5634  -2.9512  -1.5721  -1.5721  -1.5368   0.8118   1.7586
     2.3110   2.7273   3.4172   3.4172

          k = 0.0000 0.0000 0.1640 ( 37504 PWs)   bands (ev):

   -21.2124 -18.7902 -18.6720 -18.6720 -18.5142 -18.5142 -18.4970 -14.3930
   -14.2976 -14.1756 -14.1756 -12.1706 -12.1706 -11.6331 -11.3352 -11.3352
   -11.1890 -11.0971 -11.0971  -9.6729  -7.9293  -7.5135  -7.4085  -7.4013
    -7.4013  -7.2090  -7.2090  -6.3269  -6.3269  -6.1908  -6.1908  -6.1403
    -4.5634  -4.5634  -2.9512  -1.5721  -1.5721  -1.5368   0.8146   1.7932
     2.1237   3.0510   3.4172   3.4172

          k = 0.0000 0.3849 0.0000 ( 37488 PWs)   bands (ev):

   -20.9227 -20.0466 -19.1944 -19.1638 -17.5177 -17.4813 -16.6994 -15.9164
   -15.9067 -14.0448 -13.4818 -13.3911 -12.6118 -12.5095 -10.7842 -10.7695
   -10.0729  -9.7418  -9.3710  -8.6561  -8.6101  -8.2827  -8.2276  -7.9505
    -7.7009  -7.6470  -7.3263  -6.9261  -6.2968  -5.7253  -5.6843  -5.2030
    -4.9898  -4.5475  -3.7769  -3.3904  -1.0899   0.1914   0.5191   1.2597
     1.8103   1.8301   2.6503   2.8558

          k = 0.0000 0.3849 0.1640 ( 37470 PWs)   bands (ev):

   -20.9227 -20.0466 -19.1944 -19.1638 -17.5177 -17.4814 -16.6994 -15.9164
   -15.9067 -14.0448 -13.4818 -13.3911 -12.6118 -12.5095 -10.7842 -10.7695
   -10.0729  -9.7418  -9.3710  -8.6561  -8.6101  -8.2827  -8.2276  -7.9505
    -7.7009  -7.6470  -7.3263  -6.9261  -6.2968  -5.7253  -5.6843  -5.2030
    -4.9898  -4.5476  -3.7769  -3.3904  -1.0899   0.1914   0.5191   1.2609
     1.8282   1.8301   2.5109   2.8388

          k = 0.3333 0.5774 0.0000 ( 37407 PWs)   bands (ev):

   -20.4371 -20.3333 -20.2312 -17.8773 -17.8066 -17.6359 -15.8488 -15.7245
   -15.7153 -14.8324 -14.6530 -14.5946 -11.5325 -11.3537 -11.1419  -9.8850
    -9.8155  -9.6365  -9.5092  -8.8725  -8.8704  -8.8332  -8.2431  -8.1710
    -7.3838  -7.2192  -7.1905  -6.4300  -6.3863  -6.2294  -6.2169  -5.3384
    -5.1867  -4.2756  -3.7239  -3.6673  -1.2142   0.0273   0.1189   1.3787
     2.4191   2.4369   2.4589   2.7054

          k = 0.3333 0.5774 0.1640 ( 37485 PWs)   bands (ev):

   -20.4371 -20.3333 -20.2312 -17.8773 -17.8066 -17.6359 -15.8488 -15.7245
   -15.7153 -14.8324 -14.6530 -14.5946 -11.5326 -11.3537 -11.1419  -9.8850
    -9.8155  -9.6365  -9.5092  -8.8725  -8.8704  -8.8332  -8.2431  -8.1710
    -7.3838  -7.2192  -7.1905  -6.4300  -6.3863  -6.2294  -6.2169  -5.3384
    -5.1867  -4.2756  -3.7239  -3.6673  -1.2142   0.0273   0.1189   1.3791
     2.4281   2.4370   2.4596   2.7361

          k = 0.0000-0.3849 0.1640 ( 37470 PWs)   bands (ev):

   -20.9227 -20.0466 -19.1944 -19.1638 -17.5177 -17.4814 -16.6994 -15.9164
   -15.9067 -14.0448 -13.4818 -13.3911 -12.6118 -12.5095 -10.7842 -10.7695
   -10.0729  -9.7418  -9.3710  -8.6561  -8.6101  -8.2827  -8.2276  -7.9505
    -7.7009  -7.6470  -7.3263  -6.9261  -6.2968  -5.7253  -5.6843  -5.2030
    -4.9898  -4.5476  -3.7769  -3.3904  -1.0899   0.1914   0.5191   1.2608
     1.8288   1.8301   2.5085   2.8404

     the Fermi energy is    -1.1906 ev

!    total energy              =    -333.00862766 Ry
     total all-electron energy =     -1372.762373 Ry
     estimated scf accuracy    <       0.00000007 Ry
     smearing contrib. (-TS)   =      -0.00281335 Ry
     internal energy E=F+TS    =    -333.00581431 Ry

     The total energy is F=E-TS. E is the sum of the following terms:
     one-electron contribution =   -1448.21603385 Ry
     hartree contribution      =     739.35269631 Ry
     xc contribution           =     -84.46067300 Ry
     ewald contribution        =     571.32851654 Ry
     one-center paw contrib.   =    -111.01032030 Ry

     convergence has been achieved in   6 iterations

     negative rho (up, down):  5.321E-05 0.000E+00

     Forces acting on atoms (cartesian axes, Ry/au):

     atom    1 type  1   force =     0.00000000   -0.00000000    0.02712567
     atom    2 type  1   force =    -0.02316461   -0.01337409   -0.00895998
     atom    3 type  1   force =     0.00643161   -0.01376897   -0.00927723
     atom    4 type  1   force =     0.00000000    0.01360910    0.00147508
     atom    5 type  1   force =    -0.00870847    0.01245443   -0.00927723
     atom    6 type  1   force =     0.01178583   -0.00680455    0.00147508
     atom    7 type  1   force =    -0.01514008    0.00131454   -0.00927723
     atom    8 type  1   force =     0.00000000    0.01026465   -0.00092293
     atom    9 type  1   force =    -0.00643161   -0.01376897   -0.00927723
     atom   10 type  1   force =     0.00888945   -0.00513233   -0.00092293
     atom   11 type  1   force =     0.00000000   -0.00000000    0.00497512
     atom   12 type  1   force =    -0.01178583   -0.00680455    0.00147508
     atom   13 type  1   force =     0.01514008    0.00131454   -0.00927723
     atom   14 type  1   force =     0.02316461   -0.01337409   -0.00895998
     atom   15 type  1   force =     0.00000000   -0.00000000    0.00076683
     atom   16 type  1   force =    -0.00888945   -0.00513233   -0.00092293
     atom   17 type  1   force =     0.00870847    0.01245443   -0.00927723
     atom   18 type  1   force =     0.00000000    0.02674819   -0.00895998
     atom   19 type  2   force =     0.00000000   -0.00000000    0.04801923
     The non-local contrib.  to forces
     atom    1 type  1   force =     0.00000000    0.00000000    0.16387634
     atom    2 type  1   force =    -0.12339479   -0.07124201    0.04691936
     atom    3 type  1   force =     0.02475487   -0.01716219   -0.01718701
     atom    4 type  1   force =     0.00000000   -0.00026587    0.01361456
     atom    5 type  1   force =    -0.00248545    0.03001944   -0.01718701
     atom    6 type  1   force =    -0.00023025    0.00013294    0.01361456
     atom    7 type  1   force =    -0.02724032   -0.01285725   -0.01718701
     atom    8 type  1   force =     0.00000000    0.01101376    0.00064624
     atom    9 type  1   force =    -0.02475487   -0.01716219   -0.01718701
     atom   10 type  1   force =     0.00953820   -0.00550688    0.00064624
     atom   11 type  1   force =     0.00000000   -0.00000000    0.01081486
     atom   12 type  1   force =     0.00023025    0.00013294    0.01361456
     atom   13 type  1   force =     0.02724032   -0.01285725   -0.01718701
     atom   14 type  1   force =     0.12339479   -0.07124201    0.04691936
     atom   15 type  1   force =     0.00000000   -0.00000000    0.00602399
     atom   16 type  1   force =    -0.00953820   -0.00550688    0.00064624
     atom   17 type  1   force =     0.00248545    0.03001944   -0.01718701
     atom   18 type  1   force =     0.00000000    0.14248403    0.04691936
     atom   19 type  2   force =     0.00000000   -0.00000000   -0.07074292
     The ionic contribution  to forces
     atom    1 type  1   force =     0.00000000   -0.00000000   -0.26462117
     atom    2 type  1   force =    -0.28912256   -0.16692499   -1.35315834
     atom    3 type  1   force =     0.24443073    0.19233410   -0.07310242
     atom    4 type  1   force =    -0.00000000    0.02126176   -0.06572240
     atom    5 type  1   force =     0.28878158    0.11551617   -0.07310242
     atom    6 type  1   force =     0.01841322   -0.01063088   -0.06572240
     atom    7 type  1   force =     0.04435085   -0.30785027   -0.07310242
     atom    8 type  1   force =    -0.00000000    0.02384702    0.01584190
     atom    9 type  1   force =    -0.24443073    0.19233410   -0.07310242
     atom   10 type  1   force =     0.02065213   -0.01192351    0.01584190
     atom   11 type  1   force =    -0.00000000    0.00000000   -0.03160510
     atom   12 type  1   force =    -0.01841322   -0.01063088   -0.06572240
     atom   13 type  1   force =    -0.04435085   -0.30785027   -0.07310242
     atom   14 type  1   force =     0.28912256   -0.16692499   -1.35315834
     atom   15 type  1   force =     0.00000000    0.00000000   -0.05461488
     atom   16 type  1   force =    -0.02065213   -0.01192351    0.01584190
     atom   17 type  1   force =    -0.28878158    0.11551617   -0.07310242
     atom   18 type  1   force =     0.00000000    0.33384997   -1.35315834
     atom   19 type  2   force =     0.00000000   -0.00000000    4.99857223
     The local contribution  to forces
     atom    1 type  1   force =    -0.00000000    0.00000000    0.12727666
     atom    2 type  1   force =     0.38604488    0.22288312    1.29733490
     atom    3 type  1   force =    -0.26187748   -0.18867294    0.08081457
     atom    4 type  1   force =     0.00000000   -0.00751342    0.05383617
     atom    5 type  1   force =    -0.29433430   -0.13245608    0.08081457
     atom    6 type  1   force =    -0.00650681    0.00375671    0.05383617
     atom    7 type  1   force =    -0.03245682    0.32112902    0.08081457
     atom    8 type  1   force =    -0.00000000   -0.02403601   -0.01733736
     atom    9 type  1   force =     0.26187748   -0.18867294    0.08081457
     atom   10 type  1   force =    -0.02081580    0.01201801   -0.01733736
     atom   11 type  1   force =     0.00000000    0.00000000    0.02599390
     atom   12 type  1   force =     0.00650681    0.00375671    0.05383617
     atom   13 type  1   force =     0.03245682    0.32112902    0.08081457
     atom   14 type  1   force =    -0.38604488    0.22288312    1.29733490
     atom   15 type  1   force =    -0.00000000    0.00000000    0.04945482
     atom   16 type  1   force =     0.02081580    0.01201801   -0.01733736
     atom   17 type  1   force =     0.29433430   -0.13245608    0.08081457
     atom   18 type  1   force =    -0.00000000   -0.44576623    1.29733490
     atom   19 type  2   force =    -0.00000000    0.00000000   -4.87975238
     The core correction contribution to forces
     atom    1 type  1   force =    -0.00000000    0.00000000    0.00066069
     atom    2 type  1   force =     0.00346252    0.00199908   -0.00004805
     atom    3 type  1   force =    -0.00095702   -0.00025547    0.00021009
     atom    4 type  1   force =     0.00000000    0.00018149   -0.00022881
     atom    5 type  1   force =    -0.00069975   -0.00070107    0.00021009
     atom    6 type  1   force =     0.00015718   -0.00009075   -0.00022881
     atom    7 type  1   force =     0.00025727    0.00095654    0.00021009
     atom    8 type  1   force =    -0.00000000   -0.00049643   -0.00005433
     atom    9 type  1   force =     0.00095702   -0.00025547    0.00021009
     atom   10 type  1   force =    -0.00042992    0.00024821   -0.00005433
     atom   11 type  1   force =    -0.00000000   -0.00000000   -0.00018485
     atom   12 type  1   force =    -0.00015718   -0.00009075   -0.00022881
     atom   13 type  1   force =    -0.00025727    0.00095654    0.00021009
     atom   14 type  1   force =    -0.00346252    0.00199908   -0.00004805
     atom   15 type  1   force =    -0.00000000   -0.00000000   -0.00006673
     atom   16 type  1   force =     0.00042992    0.00024821   -0.00005433
     atom   17 type  1   force =     0.00069975   -0.00070107    0.00021009
     atom   18 type  1   force =     0.00000000   -0.00399817   -0.00004805
     atom   19 type  2   force =     0.00000000    0.00000000    0.00000000
     The Hubbard contrib.    to forces
     atom    1 type  1   force =     0.00000000    0.00000000    0.00000000
     atom    2 type  1   force =     0.00000000    0.00000000    0.00000000
     atom    3 type  1   force =     0.00000000    0.00000000    0.00000000
     atom    4 type  1   force =     0.00000000    0.00000000    0.00000000
     atom    5 type  1   force =     0.00000000    0.00000000    0.00000000
     atom    6 type  1   force =     0.00000000    0.00000000    0.00000000
     atom    7 type  1   force =     0.00000000    0.00000000    0.00000000
     atom    8 type  1   force =     0.00000000    0.00000000    0.00000000
     atom    9 type  1   force =     0.00000000    0.00000000    0.00000000
     atom   10 type  1   force =     0.00000000    0.00000000    0.00000000
     atom   11 type  1   force =     0.00000000    0.00000000    0.00000000
     atom   12 type  1   force =     0.00000000    0.00000000    0.00000000
     atom   13 type  1   force =     0.00000000    0.00000000    0.00000000
     atom   14 type  1   force =     0.00000000    0.00000000    0.00000000
     atom   15 type  1   force =     0.00000000    0.00000000    0.00000000
     atom   16 type  1   force =     0.00000000    0.00000000    0.00000000
     atom   17 type  1   force =     0.00000000    0.00000000    0.00000000
     atom   18 type  1   force =     0.00000000    0.00000000    0.00000000
     atom   19 type  2   force =     0.00000000    0.00000000    0.00000000
     The SCF correction term to forces
     atom    1 type  1   force =    -0.00000000   -0.00000000   -0.00006376
     atom    2 type  1   force =    -0.00015467   -0.00008930   -0.00000476
     atom    3 type  1   force =     0.00008052   -0.00001247   -0.00000936
     atom    4 type  1   force =    -0.00000000   -0.00005485   -0.00002135
     atom    5 type  1   force =     0.00002946    0.00007597   -0.00000936
     atom    6 type  1   force =    -0.00004750    0.00002743   -0.00002135
     atom    7 type  1   force =    -0.00005106   -0.00006349   -0.00000936
     atom    8 type  1   force =     0.00000000   -0.00006369   -0.00001629
     atom    9 type  1   force =    -0.00008052   -0.00001247   -0.00000936
     atom   10 type  1   force =    -0.00005516    0.00003185   -0.00001629
     atom   11 type  1   force =    -0.00000000    0.00000000   -0.00004061
     atom   12 type  1   force =     0.00004750    0.00002743   -0.00002135
     atom   13 type  1   force =     0.00005106   -0.00006349   -0.00000936
     atom   14 type  1   force =     0.00015467   -0.00008930   -0.00000476
     atom   15 type  1   force =     0.00000000   -0.00000000   -0.00002728
     atom   16 type  1   force =     0.00005516    0.00003185   -0.00001629
     atom   17 type  1   force =    -0.00002946    0.00007597   -0.00000936
     atom   18 type  1   force =    -0.00000000    0.00017859   -0.00000476
     atom   19 type  2   force =    -0.00000000   -0.00000000   -0.00005461

     Total force =     0.090759     Total SCF correction =     0.000411


     Computing stress (Cartesian axis) and pressure


     negative rho (up, down):  5.321E-05 0.000E+00
          total   stress  (Ry/bohr**3)                   (kbar)     P=       14.64
   0.00013895   0.00000000   0.00000000           20.44        0.00        0.00
   0.00000000   0.00013895  -0.00000000            0.00       20.44       -0.00
   0.00000000  -0.00000000   0.00002069            0.00       -0.00        3.04

     Energy error            =      1.4E-02 Ry
     Gradient error          =      4.8E-02 Ry/Bohr

     number of scf cycles    =   3
     number of bfgs steps    =   2

     energy             old  =    -332.9945146101 Ry
     energy             new  =    -333.0086276604 Ry

     CASE: energy            _new < energy            _old

     new trust radius        =       0.0817562756 bohr
     new conv_thr            =       0.0000004802 Ry


ATOMIC_POSITIONS (angstrom)
C             0.0000000000       -0.0000000000        7.5997532124
C             1.2692575733        0.7328062016        7.4343499656
C            -1.2416186448        2.1371510964        7.4857054908
C             0.0000000000        2.8421050172        7.4962306080
C            -2.4599821812        4.2474186435        7.4857054908
C            -1.2286648549        4.9702149713        7.4962306080
C             2.4716364636        0.0066977400        7.4857054908
C             3.6900000000        0.7178841382        7.4970934766
C             1.2416186448        2.1371510964        7.4857054908
C             2.4667059006        2.8366916709        7.4970934766
C             0.0000000000        4.2608449866        7.4998268468
C             1.2286648549        4.9702149713        7.4962306080
C             4.9083635364        0.0066977400        7.4857054908
C             6.1107424267        0.7328062016        7.4343499656
C             3.6900000000        2.1304224933        7.4952299172
C             4.9132940994        2.8366916709        7.4970934766
C             2.4599821812        4.2474186435        7.4857054908
C             3.6900000000        4.9256550767        7.4343499656
H             0.0000000000        0.0000000000        8.7109431319



     Writing config-only to output data dir ./graphene_h_over_c.save/
     NEW-OLD atomic charge density approx. for the potential

     negative rho (up, down):  5.193E-05 0.000E+00

     total cpu time spent up to now is      160.9 secs

     Self-consistent Calculation

     iteration #  1     ecut=    60.00 Ry     beta= 0.70
     Davidson diagonalization with overlap
     ethr =  1.00E-06,  avg # of iterations =  7.6

     negative rho (up, down):  5.133E-05 0.000E+00

     total cpu time spent up to now is      168.4 secs

     total energy              =    -333.01562031 Ry
     estimated scf accuracy    <       0.00137810 Ry

     iteration #  2     ecut=    60.00 Ry     beta= 0.70
     Davidson diagonalization with overlap
     ethr =  1.89E-06,  avg # of iterations =  3.0

     negative rho (up, down):  5.577E-05 0.000E+00

     total cpu time spent up to now is      173.1 secs

     total energy              =    -333.01585387 Ry
     estimated scf accuracy    <       0.00052816 Ry

     iteration #  3     ecut=    60.00 Ry     beta= 0.70
     Davidson diagonalization with overlap
     ethr =  7.24E-07,  avg # of iterations =  2.4

     negative rho (up, down):  5.247E-05 0.000E+00

     total cpu time spent up to now is      177.5 secs

     total energy              =    -333.01596651 Ry
     estimated scf accuracy    <       0.00005386 Ry

     iteration #  4     ecut=    60.00 Ry     beta= 0.70
     Davidson diagonalization with overlap
     ethr =  7.38E-08,  avg # of iterations =  3.4

     negative rho (up, down):  5.172E-05 0.000E+00

     total cpu time spent up to now is      182.2 secs

     total energy              =    -333.01597952 Ry
     estimated scf accuracy    <       0.00002643 Ry

     iteration #  5     ecut=    60.00 Ry     beta= 0.70
     Davidson diagonalization with overlap
     ethr =  3.62E-08,  avg # of iterations =  2.4

     negative rho (up, down):  5.152E-05 0.000E+00

     total cpu time spent up to now is      186.2 secs

     total energy              =    -333.01598454 Ry
     estimated scf accuracy    <       0.00000052 Ry

     iteration #  6     ecut=    60.00 Ry     beta= 0.70
     Davidson diagonalization with overlap
     ethr =  7.17E-10,  avg # of iterations =  6.1

     negative rho (up, down):  5.150E-05 0.000E+00

     total cpu time spent up to now is      192.0 secs

     End of self-consistent calculation

          k = 0.0000 0.0000 0.0000 ( 37425 PWs)   bands (ev):

   -21.2013 -18.8175 -18.6292 -18.6292 -18.5418 -18.4847 -18.4847 -14.4195
   -14.2258 -14.1703 -14.1703 -12.1607 -12.1607 -11.6152 -11.3114 -11.3114
   -11.1781 -11.1024 -11.1024  -9.6956  -8.0056  -7.4377  -7.4176  -7.4176
    -7.3604  -7.2597  -7.2597  -6.2706  -6.2706  -6.1877  -6.1691  -6.1691
    -4.5502  -4.5502  -3.0331  -1.5730  -1.5730  -1.5182   0.7106   1.7723
     2.3028   2.7431   3.3562   3.3562

          k = 0.0000 0.0000 0.1640 ( 37504 PWs)   bands (ev):

   -21.2013 -18.8175 -18.6292 -18.6292 -18.5418 -18.4847 -18.4847 -14.4195
   -14.2258 -14.1703 -14.1703 -12.1607 -12.1607 -11.6152 -11.3114 -11.3114
   -11.1781 -11.1024 -11.1024  -9.6956  -8.0057  -7.4377  -7.4176  -7.4176
    -7.3604  -7.2597  -7.2597  -6.2706  -6.2706  -6.1878  -6.1691  -6.1691
    -4.5502  -4.5502  -3.0331  -1.5730  -1.5730  -1.5182   0.7127   1.8105
     2.1208   3.0535   3.3562   3.3562

          k = 0.0000 0.3849 0.0000 ( 37488 PWs)   bands (ev):

   -20.9114 -20.0358 -19.2065 -19.1281 -17.5287 -17.4431 -16.6857 -15.9357
   -15.8646 -14.0281 -13.4724 -13.3768 -12.5982 -12.4997 -10.7812 -10.7526
   -10.0856  -9.7303  -9.3816  -8.6203  -8.6177  -8.3021  -8.2388  -7.9214
    -7.7097  -7.6567  -7.3427  -6.9022  -6.2832  -5.7641  -5.6651  -5.2120
    -4.9408  -4.5512  -3.7996  -3.3663  -1.1706   0.1778   0.5042   1.2284
     1.7954   1.8321   2.6328   2.8513

          k = 0.0000 0.3849 0.1640 ( 37470 PWs)   bands (ev):

   -20.9114 -20.0358 -19.2065 -19.1281 -17.5287 -17.4431 -16.6857 -15.9357
   -15.8646 -14.0281 -13.4724 -13.3768 -12.5982 -12.4997 -10.7812 -10.7526
   -10.0856  -9.7302  -9.3816  -8.6203  -8.6177  -8.3021  -8.2388  -7.9214
    -7.7097  -7.6566  -7.3426  -6.9022  -6.2832  -5.7641  -5.6651  -5.2120
    -4.9408  -4.5512  -3.7996  -3.3663  -1.1706   0.1778   0.5042   1.2295
     1.7954   1.8505   2.5042   2.8234

          k = 0.3333 0.5774 0.0000 ( 37407 PWs)   bands (ev):

   -20.4247 -20.3198 -20.2244 -17.8575 -17.7897 -17.6362 -15.8209 -15.7145
   -15.7093 -14.8071 -14.6437 -14.5957 -11.5202 -11.3304 -11.1432  -9.8829
    -9.8007  -9.6421  -9.5168  -8.8873  -8.8652  -8.8304  -8.2295  -8.1698
    -7.3544  -7.2160  -7.1935  -6.4491  -6.3769  -6.2484  -6.2312  -5.3017
    -5.1862  -4.2714  -3.7170  -3.6645  -1.2844   0.0187   0.1001   1.2947
     2.4296   2.4348   2.4587   2.7017

          k = 0.3333 0.5774 0.1640 ( 37485 PWs)   bands (ev):

   -20.4247 -20.3198 -20.2244 -17.8575 -17.7897 -17.6362 -15.8209 -15.7145
   -15.7093 -14.8071 -14.6437 -14.5957 -11.5202 -11.3304 -11.1433  -9.8829
    -9.8007  -9.6421  -9.5168  -8.8873  -8.8652  -8.8304  -8.2295  -8.1698
    -7.3544  -7.2160  -7.1935  -6.4491  -6.3769  -6.2484  -6.2312  -5.3017
    -5.1862  -4.2714  -3.7171  -3.6645  -1.2844   0.0187   0.1001   1.2950
     2.4297   2.4353   2.4680   2.7321

          k = 0.0000-0.3849 0.1640 ( 37470 PWs)   bands (ev):

   -20.9114 -20.0358 -19.2065 -19.1281 -17.5287 -17.4431 -16.6857 -15.9357
   -15.8646 -14.0281 -13.4724 -13.3768 -12.5982 -12.4997 -10.7812 -10.7526
   -10.0856  -9.7302  -9.3816  -8.6203  -8.6177  -8.3021  -8.2388  -7.9214
    -7.7097  -7.6566  -7.3426  -6.9022  -6.2832  -5.7641  -5.6651  -5.2120
    -4.9408  -4.5512  -3.7996  -3.3663  -1.1706   0.1778   0.5042   1.2294
     1.7954   1.8511   2.5018   2.8245

     the Fermi energy is    -1.2675 ev

!    total energy              =    -333.01598476 Ry
     total all-electron energy =     -1372.769730 Ry
     estimated scf accuracy    <       0.00000015 Ry
     smearing contrib. (-TS)   =      -0.00298478 Ry
     internal energy E=F+TS    =    -333.01299998 Ry

     The total energy is F=E-TS. E is the sum of the following terms:
     one-electron contribution =   -1447.16147724 Ry
     hartree contribution      =     738.82394481 Ry
     xc contribution           =     -84.43375060 Ry
     ewald contribution        =     570.76773192 Ry
     one-center paw contrib.   =    -111.00944887 Ry

     convergence has been achieved in   6 iterations

     negative rho (up, down):  5.150E-05 0.000E+00

     Forces acting on atoms (cartesian axes, Ry/au):

     atom    1 type  1   force =     0.00000000    0.00000000    0.02251708
     atom    2 type  1   force =    -0.00086587   -0.00049991    0.00265607
     atom    3 type  1   force =     0.00778068   -0.01366651   -0.00936622
     atom    4 type  1   force =     0.00000000   -0.00106601    0.00016538
     atom    5 type  1   force =    -0.00794520    0.01357153   -0.00936622
     atom    6 type  1   force =    -0.00092319    0.00053300    0.00016538
     atom    7 type  1   force =    -0.01572589    0.00009498   -0.00936622
     atom    8 type  1   force =     0.00000000   -0.00450070   -0.00432101
     atom    9 type  1   force =    -0.00778068   -0.01366651   -0.00936622
     atom   10 type  1   force =    -0.00389772    0.00225035   -0.00432101
     atom   11 type  1   force =     0.00000000    0.00000000    0.00607058
     atom   12 type  1   force =     0.00092319    0.00053300    0.00016538
     atom   13 type  1   force =     0.01572589    0.00009498   -0.00936622
     atom   14 type  1   force =     0.00086587   -0.00049991    0.00265607
     atom   15 type  1   force =     0.00000000    0.00000000    0.00082900
     atom   16 type  1   force =     0.00389772    0.00225035   -0.00432101
     atom   17 type  1   force =     0.00794520    0.01357153   -0.00936622
     atom   18 type  1   force =     0.00000000    0.00099982    0.00265607
     atom   19 type  2   force =     0.00000000    0.00000000    0.03127938
     The non-local contrib.  to forces
     atom    1 type  1   force =     0.00000000   -0.00000000    0.13656561
     atom    2 type  1   force =    -0.09147721   -0.05281439    0.05801971
     atom    3 type  1   force =     0.02563325   -0.01314881   -0.01998594
     atom    4 type  1   force =     0.00000000   -0.01409602    0.01179646
     atom    5 type  1   force =     0.00142942    0.02877345   -0.01998594
     atom    6 type  1   force =    -0.01220751    0.00704801    0.01179646
     atom    7 type  1   force =    -0.02420383   -0.01562464   -0.01998594
     atom    8 type  1   force =     0.00000000   -0.00564372   -0.00263839
     atom    9 type  1   force =    -0.02563325   -0.01314881   -0.01998594
     atom   10 type  1   force =    -0.00488761    0.00282186   -0.00263839
     atom   11 type  1   force =     0.00000000   -0.00000000    0.01367274
     atom   12 type  1   force =     0.01220751    0.00704801    0.01179646
     atom   13 type  1   force =     0.02420383   -0.01562464   -0.01998594
     atom   14 type  1   force =     0.09147721   -0.05281439    0.05801971
     atom   15 type  1   force =     0.00000000   -0.00000000    0.00674991
     atom   16 type  1   force =     0.00488761    0.00282186   -0.00263839
     atom   17 type  1   force =    -0.00142942    0.02877345   -0.01998594
     atom   18 type  1   force =     0.00000000    0.10562878    0.05801971
     atom   19 type  2   force =     0.00000000   -0.00000000   -0.06869213
     The ionic contribution  to forces
     atom    1 type  1   force =     0.00000000   -0.00000000    0.45789561
     atom    2 type  1   force =    -0.22072348   -0.12743476   -1.62559251
     atom    3 type  1   force =     0.21516725    0.19329254   -0.14132583
     atom    4 type  1   force =    -0.00000000   -0.02583826   -0.00169258
     atom    5 type  1   force =     0.27497988    0.08969403   -0.14132583
     atom    6 type  1   force =    -0.02237659    0.01291913   -0.00169258
     atom    7 type  1   force =     0.05981263   -0.28298658   -0.14132583
     atom    8 type  1   force =    -0.00000000   -0.04875032    0.07361771
     atom    9 type  1   force =    -0.21516725    0.19329254   -0.14132583
     atom   10 type  1   force =    -0.04221901    0.02437516    0.07361771
     atom   11 type  1   force =     0.00000000    0.00000000    0.05093378
     atom   12 type  1   force =     0.02237659    0.01291913   -0.00169258
     atom   13 type  1   force =    -0.05981263   -0.28298658   -0.14132583
     atom   14 type  1   force =     0.22072348   -0.12743476   -1.62559251
     atom   15 type  1   force =    -0.00000000    0.00000000   -0.01076979
     atom   16 type  1   force =     0.04221901    0.02437516    0.07361771
     atom   17 type  1   force =    -0.27497988    0.08969403   -0.14132583
     atom   18 type  1   force =     0.00000000    0.25486953   -1.62559251
     atom   19 type  2   force =     0.00000000   -0.00000000    5.01089748
     The local contribution  to forces
     atom    1 type  1   force =    -0.00000000   -0.00000000   -0.57250404
     atom    2 type  1   force =     0.30835384    0.17802817    1.57006107
     atom    3 type  1   force =    -0.23187352   -0.19361156    0.15147751
     atom    4 type  1   force =     0.00000000    0.03820589   -0.00984599
     atom    5 type  1   force =    -0.28360929   -0.10400258    0.15147751
     atom    6 type  1   force =     0.03308727   -0.01910294   -0.00984599
     atom    7 type  1   force =    -0.05173577    0.29761414    0.15147751
     atom    8 type  1   force =    -0.00000000    0.04964953   -0.07540756
     atom    9 type  1   force =     0.23187352   -0.19361156    0.15147751
     atom   10 type  1   force =     0.04299775   -0.02482477   -0.07540756
     atom   11 type  1   force =    -0.00000000    0.00000000   -0.05839918
     atom   12 type  1   force =    -0.03308727   -0.01910294   -0.00984599
     atom   13 type  1   force =     0.05173577    0.29761414    0.15147751
     atom   14 type  1   force =    -0.30835384    0.17802817    1.57006107
     atom   15 type  1   force =    -0.00000000    0.00000000    0.00479024
     atom   16 type  1   force =    -0.04299775   -0.02482477   -0.07540756
     atom   17 type  1   force =     0.28360929   -0.10400258    0.15147751
     atom   18 type  1   force =    -0.00000000   -0.35605635    1.57006107
     atom   19 type  2   force =     0.00000000    0.00000000   -4.91098862
     The core correction contribution to forces
     atom    1 type  1   force =     0.00000000   -0.00000000    0.00035055
     atom    2 type  1   force =     0.00277124    0.00159997   -0.00001390
     atom    3 type  1   force =    -0.00090952   -0.00027482    0.00029882
     atom    4 type  1   force =    -0.00000000    0.00055752   -0.00024768
     atom    5 type  1   force =    -0.00069276   -0.00065026    0.00029882
     atom    6 type  1   force =     0.00048283   -0.00027876   -0.00024768
     atom    7 type  1   force =     0.00021676    0.00092508    0.00029882
     atom    8 type  1   force =     0.00000000   -0.00001439   -0.00005336
     atom    9 type  1   force =     0.00090952   -0.00027482    0.00029882
     atom   10 type  1   force =    -0.00001246    0.00000719   -0.00005336
     atom   11 type  1   force =     0.00000000   -0.00000000   -0.00027423
     atom   12 type  1   force =    -0.00048283   -0.00027876   -0.00024768
     atom   13 type  1   force =    -0.00021676    0.00092508    0.00029882
     atom   14 type  1   force =    -0.00277124    0.00159997   -0.00001390
     atom   15 type  1   force =    -0.00000000   -0.00000000   -0.00009164
     atom   16 type  1   force =     0.00001246    0.00000719   -0.00005336
     atom   17 type  1   force =     0.00069276   -0.00065026    0.00029882
     atom   18 type  1   force =    -0.00000000   -0.00319995   -0.00001390
     atom   19 type  2   force =     0.00000000    0.00000000    0.00000000
     The Hubbard contrib.    to forces
     atom    1 type  1   force =     0.00000000    0.00000000    0.00000000
     atom    2 type  1   force =     0.00000000    0.00000000    0.00000000
     atom    3 type  1   force =     0.00000000    0.00000000    0.00000000
     atom    4 type  1   force =     0.00000000    0.00000000    0.00000000
     atom    5 type  1   force =     0.00000000    0.00000000    0.00000000
     atom    6 type  1   force =     0.00000000    0.00000000    0.00000000
     atom    7 type  1   force =     0.00000000    0.00000000    0.00000000
     atom    8 type  1   force =     0.00000000    0.00000000    0.00000000
[...]

     iteration #  4     ecut=    60.00 Ry     beta= 0.70
     Davidson diagonalization with overlap
     ethr =  1.34E-09,  avg # of iterations =  2.6

     negative rho (up, down):  4.925E-05 0.000E+00

     total cpu time spent up to now is      616.4 secs

     total energy              =    -333.03495596 Ry
     estimated scf accuracy    <       0.00000011 Ry

     iteration #  5     ecut=    60.00 Ry     beta= 0.70
     Davidson diagonalization with overlap
     ethr =  1.56E-10,  avg # of iterations =  3.1

     negative rho (up, down):  4.925E-05 0.000E+00

     total cpu time spent up to now is      619.8 secs

     End of self-consistent calculation

          k = 0.0000 0.0000 0.0000 ( 37425 PWs)   bands (ev):

   -21.1387 -18.5930 -18.5930 -18.5799 -18.5386 -18.4869 -18.4869 -14.3814
   -14.2210 -14.1398 -14.1398 -12.1142 -12.1142 -11.6320 -11.2820 -11.2820
   -11.2160 -11.0435 -11.0435  -9.5545  -8.0605  -7.4747  -7.4036  -7.4036
    -7.3221  -7.3137  -7.3137  -6.2217  -6.2217  -6.2025  -6.0908  -6.0908
    -4.5634  -4.5634  -3.4446  -1.5379  -1.5253  -1.5253   0.6238   1.6245
     2.2880   2.7323   3.2751   3.2751

          k = 0.0000 0.0000 0.1640 ( 37504 PWs)   bands (ev):

   -21.1387 -18.5930 -18.5930 -18.5799 -18.5386 -18.4869 -18.4869 -14.3814
   -14.2210 -14.1398 -14.1398 -12.1142 -12.1142 -11.6320 -11.2820 -11.2820
   -11.2160 -11.0435 -11.0435  -9.5545  -8.0605  -7.4747  -7.4036  -7.4036
    -7.3221  -7.3138  -7.3138  -6.2217  -6.2217  -6.2025  -6.0908  -6.0908
    -4.5634  -4.5634  -3.4446  -1.5379  -1.5253  -1.5253   0.6246   1.6606
     2.1028   3.0554   3.2750   3.2750

          k = 0.0000 0.3849 0.0000 ( 37488 PWs)   bands (ev):

   -20.8467 -19.9750 -19.1191 -19.1089 -17.4460 -17.4286 -16.6459 -15.8762
   -15.8527 -13.9920 -13.4637 -13.3352 -12.5941 -12.4520 -10.7515 -10.7232
   -10.0830  -9.6956  -9.2871  -8.6515  -8.6109  -8.2690  -8.2065  -7.9213
    -7.7233  -7.6005  -7.3744  -6.8511  -6.2832  -5.8431  -5.7244  -5.2343
    -4.8844  -4.5533  -3.8083  -3.3364  -1.4900   0.1788   0.5031   1.1893
     1.7715   1.8412   2.6276   2.9496

          k = 0.0000 0.3849 0.1640 ( 37470 PWs)   bands (ev):

   -20.8467 -19.9750 -19.1191 -19.1089 -17.4460 -17.4286 -16.6459 -15.8762
   -15.8527 -13.9920 -13.4637 -13.3352 -12.5941 -12.4520 -10.7515 -10.7232
   -10.0830  -9.6956  -9.2871  -8.6515  -8.6108  -8.2690  -8.2065  -7.9213
    -7.7233  -7.6005  -7.3744  -6.8511  -6.2832  -5.8431  -5.7244  -5.2343
    -4.8844  -4.5533  -3.8083  -3.3364  -1.4900   0.1788   0.5031   1.1896
     1.7715   1.8648   2.4854   2.9280

          k = 0.3333 0.5774 0.0000 ( 37407 PWs)   bands (ev):

   -20.2972 -20.2726 -20.2222 -17.7585 -17.7283 -17.6487 -15.7490 -15.6964
   -15.6934 -14.7734 -14.5841 -14.5688 -11.5703 -11.2818 -11.1148  -9.8991
    -9.7570  -9.6068  -9.4223  -8.8441  -8.8279  -8.8182  -8.2115  -8.1239
    -7.3701  -7.3313  -7.1060  -6.4799  -6.4236  -6.2987  -6.2745  -5.1828
    -5.1723  -4.3670  -3.6541  -3.6401  -1.5654   0.0603   0.0714   1.1950
     2.3738   2.4190   2.5130   2.6940

          k = 0.3333 0.5774 0.1640 ( 37485 PWs)   bands (ev):

   -20.2972 -20.2726 -20.2222 -17.7585 -17.7283 -17.6487 -15.7490 -15.6964
   -15.6934 -14.7734 -14.5841 -14.5688 -11.5703 -11.2818 -11.1148  -9.8991
    -9.7570  -9.6068  -9.4223  -8.8441  -8.8279  -8.8182  -8.2115  -8.1239
    -7.3701  -7.3313  -7.1060  -6.4799  -6.4236  -6.2987  -6.2745  -5.1828
    -5.1723  -4.3670  -3.6541  -3.6401  -1.5654   0.0603   0.0714   1.1951
     2.3744   2.4195   2.5263   2.7229

          k = 0.0000-0.3849 0.1640 ( 37470 PWs)   bands (ev):

   -20.8467 -19.9750 -19.1191 -19.1089 -17.4460 -17.4286 -16.6459 -15.8762
   -15.8527 -13.9920 -13.4637 -13.3352 -12.5941 -12.4520 -10.7515 -10.7231
   -10.0830  -9.6956  -9.2871  -8.6515  -8.6108  -8.2690  -8.2065  -7.9213
    -7.7233  -7.6005  -7.3744  -6.8511  -6.2832  -5.8431  -5.7244  -5.2343
    -4.8844  -4.5533  -3.8083  -3.3364  -1.4900   0.1788   0.5031   1.1896
     1.7715   1.8646   2.4863   2.9262

     the Fermi energy is    -1.5144 ev

!    total energy              =    -333.03495598 Ry
     total all-electron energy =     -1372.788702 Ry
     estimated scf accuracy    <       0.00000001 Ry
     smearing contrib. (-TS)   =      -0.00665743 Ry
     internal energy E=F+TS    =    -333.02829855 Ry

     The total energy is F=E-TS. E is the sum of the following terms:
     one-electron contribution =   -1439.14493752 Ry
     hartree contribution      =     734.78768141 Ry
     xc contribution           =     -84.31453154 Ry
     ewald contribution        =     566.64989067 Ry
     one-center paw contrib.   =    -111.00640157 Ry

     convergence has been achieved in   5 iterations

     negative rho (up, down):  4.925E-05 0.000E+00

     Forces acting on atoms (cartesian axes, Ry/au):

     atom    1 type  1   force =     0.00000000   -0.00000000    0.00005239
     atom    2 type  1   force =    -0.00007740   -0.00004469   -0.00018272
     atom    3 type  1   force =     0.00020394   -0.00030711   -0.00021492
     atom    4 type  1   force =     0.00000000    0.00014947    0.00044294
     atom    5 type  1   force =    -0.00016399    0.00033017   -0.00021492
     atom    6 type  1   force =     0.00012945   -0.00007474    0.00044294
     atom    7 type  1   force =    -0.00036793   -0.00002306   -0.00021492
     atom    8 type  1   force =    -0.00000000   -0.00004299    0.00006956
     atom    9 type  1   force =    -0.00020394   -0.00030711   -0.00021492
     atom   10 type  1   force =    -0.00003723    0.00002149    0.00006956
     atom   11 type  1   force =     0.00000000   -0.00000000    0.00024107
     atom   12 type  1   force =    -0.00012945   -0.00007474    0.00044294
     atom   13 type  1   force =     0.00036793   -0.00002306   -0.00021492
     atom   14 type  1   force =     0.00007740   -0.00004469   -0.00018272
     atom   15 type  1   force =     0.00000000    0.00000000   -0.00022708
     atom   16 type  1   force =     0.00003723    0.00002149    0.00006956
     atom   17 type  1   force =     0.00016399    0.00033017   -0.00021492
     atom   18 type  1   force =     0.00000000    0.00008938   -0.00018272
     atom   19 type  2   force =     0.00000000   -0.00000000    0.00023379
     The non-local contrib.  to forces
     atom    1 type  1   force =     0.00000000   -0.00000000    0.01757518
     atom    2 type  1   force =    -0.06212685   -0.03586896    0.02610785
     atom    3 type  1   force =     0.00939199    0.01661483   -0.00945343
     atom    4 type  1   force =     0.00000000   -0.00998775   -0.00688283
     atom    5 type  1   force =     0.01908486   -0.00017372   -0.00945343
     atom    6 type  1   force =    -0.00864965    0.00499388   -0.00688283
     atom    7 type  1   force =     0.00969287   -0.01644112   -0.00945343
     atom    8 type  1   force =     0.00000000   -0.00489823   -0.00302413
     atom    9 type  1   force =    -0.00939199    0.01661483   -0.00945343
     atom   10 type  1   force =    -0.00424199    0.00244911   -0.00302413
     atom   11 type  1   force =     0.00000000    0.00000000    0.01309015
     atom   12 type  1   force =     0.00864965    0.00499388   -0.00688283
     atom   13 type  1   force =    -0.00969287   -0.01644112   -0.00945343
     atom   14 type  1   force =     0.06212685   -0.03586896    0.02610785
     atom   15 type  1   force =     0.00000000    0.00000000   -0.02625394
     atom   16 type  1   force =     0.00424199    0.00244911   -0.00302413
     atom   17 type  1   force =    -0.01908486   -0.00017372   -0.00945343
     atom   18 type  1   force =    -0.00000000    0.07173791    0.02610785
     atom   19 type  2   force =     0.00000000    0.00000000   -0.06674937
     The ionic contribution  to forces
     atom    1 type  1   force =     0.00000000   -0.00000000    4.37949146
     atom    2 type  1   force =    -0.36225684   -0.20914908   -0.39652179
     atom    3 type  1   force =     0.12460856    0.21101327   -0.61296952
     atom    4 type  1   force =    -0.00000000    0.02570519    0.04167016
     atom    5 type  1   force =     0.24504714    0.00240754   -0.61296952
     atom    6 type  1   force =     0.02226134   -0.01285259    0.04167016
     atom    7 type  1   force =     0.12043857   -0.21342082   -0.61296952
     atom    8 type  1   force =     0.00000000   -0.09983585   -1.21182046
     atom    9 type  1   force =    -0.12460856    0.21101327   -0.61296952
     atom   10 type  1   force =    -0.08646039    0.04991793   -1.21182046
     atom   11 type  1   force =     0.00000000    0.00000000   -0.05532604
     atom   12 type  1   force =    -0.02226134   -0.01285259    0.04167016
     atom   13 type  1   force =    -0.12043857   -0.21342082   -0.61296952
     atom   14 type  1   force =     0.36225684   -0.20914908   -0.39652179
     atom   15 type  1   force =    -0.00000000    0.00000000   -1.12118106
     atom   16 type  1   force =     0.08646039    0.04991793   -1.21182046
     atom   17 type  1   force =    -0.24504714    0.00240754   -0.61296952
     atom   18 type  1   force =    -0.00000000    0.41829816   -0.39652179
     atom   19 type  2   force =     0.00000000   -0.00000000    5.17484902
     The local contribution  to forces
     atom    1 type  1   force =     0.00000000    0.00000000   -4.39742959
     atom    2 type  1   force =     0.42160830    0.24341567    0.37028398
     atom    3 type  1   force =    -0.13332435   -0.22711749    0.62183149
     atom    4 type  1   force =     0.00000000   -0.01598397   -0.03429301
     atom    5 type  1   force =    -0.26335169   -0.00190353    0.62183149
     atom    6 type  1   force =    -0.01384252    0.00799198   -0.03429301
     atom    7 type  1   force =    -0.13002734    0.22902102    0.62183149
     atom    8 type  1   force =     0.00000000    0.10445478    1.21445277
     atom    9 type  1   force =     0.13332435   -0.22711749    0.62183149
     atom   10 type  1   force =     0.09046050   -0.05222739    1.21445277
     atom   11 type  1   force =    -0.00000000    0.00000000    0.04268387
     atom   12 type  1   force =     0.01384252    0.00799198   -0.03429301
     atom   13 type  1   force =     0.13002734    0.22902102    0.62183149
     atom   14 type  1   force =    -0.42160830    0.24341567    0.37028398
     atom   15 type  1   force =    -0.00000000    0.00000000    1.14652990
     atom   16 type  1   force =    -0.09046050   -0.05222739    1.21445277
     atom   17 type  1   force =     0.26335169   -0.00190353    0.62183149
     atom   18 type  1   force =     0.00000000   -0.48683133    0.37028398
     atom   19 type  2   force =    -0.00000000    0.00000000   -5.10787075
     The core correction contribution to forces
     atom    1 type  1   force =    -0.00000000   -0.00000000    0.00043824
     atom    2 type  1   force =     0.00271357    0.00156668   -0.00005947
     atom    3 type  1   force =    -0.00042661   -0.00085392    0.00037126
     atom    4 type  1   force =    -0.00000000    0.00038263   -0.00005123
     atom    5 type  1   force =    -0.00095282    0.00005750    0.00037126
     atom    6 type  1   force =     0.00033137   -0.00019132   -0.00005123
     atom    7 type  1   force =    -0.00052621    0.00079642    0.00037126
     atom    8 type  1   force =    -0.00000000    0.00019221    0.00044991
     atom    9 type  1   force =     0.00042661   -0.00085392    0.00037126
     atom   10 type  1   force =     0.00016646   -0.00009611    0.00044991
     atom   11 type  1   force =     0.00000000   -0.00000000   -0.00020434
     atom   12 type  1   force =    -0.00033137   -0.00019132   -0.00005123
     atom   13 type  1   force =     0.00052621    0.00079642    0.00037126
     atom   14 type  1   force =    -0.00271357    0.00156668   -0.00005947
     atom   15 type  1   force =    -0.00000000   -0.00000000    0.00066003
     atom   16 type  1   force =    -0.00016646   -0.00009611    0.00044991
     atom   17 type  1   force =     0.00095282    0.00005750    0.00037126
     atom   18 type  1   force =     0.00000000   -0.00313336   -0.00005947
     atom   19 type  2   force =     0.00000000    0.00000000    0.00000000
     The Hubbard contrib.    to forces
     atom    1 type  1   force =     0.00000000    0.00000000    0.00000000
     atom    2 type  1   force =     0.00000000    0.00000000    0.00000000
     atom    3 type  1   force =     0.00000000    0.00000000    0.00000000
     atom    4 type  1   force =     0.00000000    0.00000000    0.00000000
     atom    5 type  1   force =     0.00000000    0.00000000    0.00000000
     atom    6 type  1   force =     0.00000000    0.00000000    0.00000000
     atom    7 type  1   force =     0.00000000    0.00000000    0.00000000
     atom    8 type  1   force =     0.00000000    0.00000000    0.00000000
     atom    9 type  1   force =     0.00000000    0.00000000    0.00000000
     atom   10 type  1   force =     0.00000000    0.00000000    0.00000000
     atom   11 type  1   force =     0.00000000    0.00000000    0.00000000
     atom   12 type  1   force =     0.00000000    0.00000000    0.00000000
     atom   13 type  1   force =     0.00000000    0.00000000    0.00000000
     atom   14 type  1   force =     0.00000000    0.00000000    0.00000000
     atom   15 type  1   force =     0.00000000    0.00000000    0.00000000
     atom   16 type  1   force =     0.00000000    0.00000000    0.00000000
     atom   17 type  1   force =     0.00000000    0.00000000    0.00000000
     atom   18 type  1   force =     0.00000000    0.00000000    0.00000000
     atom   19 type  2   force =     0.00000000    0.00000000    0.00000000
     The SCF correction term to forces
     atom    1 type  1   force =     0.00000000   -0.00000000   -0.00003925
     atom    2 type  1   force =    -0.00001559   -0.00000900   -0.00000964
     atom    3 type  1   force =    -0.00004565    0.00003619   -0.00001106
     atom    4 type  1   force =     0.00000000    0.00003338   -0.00001649
     atom    5 type  1   force =     0.00000852   -0.00005763   -0.00001106
     atom    6 type  1   force =     0.00002891   -0.00001669   -0.00001649
     atom    7 type  1   force =     0.00005417    0.00002143   -0.00001106
     atom    8 type  1   force =     0.00000000    0.00004410   -0.00000487
     atom    9 type  1   force =     0.00004565    0.00003619   -0.00001106
     atom   10 type  1   force =     0.00003819   -0.00002205   -0.00000487
     atom   11 type  1   force =    -0.00000000    0.00000000   -0.00001892
     atom   12 type  1   force =    -0.00002891   -0.00001669   -0.00001649
     atom   13 type  1   force =    -0.00005417    0.00002143   -0.00001106
     atom   14 type  1   force =     0.00001559   -0.00000900   -0.00000964
     atom   15 type  1   force =     0.00000000    0.00000000    0.00000166
     atom   16 type  1   force =    -0.00003819   -0.00002205   -0.00000487
     atom   17 type  1   force =    -0.00000852   -0.00005763   -0.00001106
     atom   18 type  1   force =    -0.00000000    0.00001800   -0.00000964
     atom   19 type  2   force =    -0.00000000   -0.00000000   -0.00001146

     Total force =     0.001435     Total SCF correction =     0.000186
     SCF correction compared to forces is large: reduce conv_thr to get better values


     Computing stress (Cartesian axis) and pressure


     negative rho (up, down):  4.925E-05 0.000E+00
          total   stress  (Ry/bohr**3)                   (kbar)     P=        8.30
   0.00008602   0.00000000   0.00000000           12.65        0.00        0.00
   0.00000000   0.00008602   0.00000000            0.00       12.65        0.00
   0.00000000   0.00000000  -0.00000279            0.00        0.00       -0.41

     Energy error            =      3.2E-05 Ry
     Gradient error          =      4.4E-04 Ry/Bohr

     bfgs converged in  13 scf cycles and  12 bfgs steps
     (criteria: energy <  1.0E-04 Ry, force <  1.0E-03 Ry/Bohr)

     End of BFGS Geometry Optimization

     Final energy             =    -333.0349559838 Ry

     File ./graphene_h_over_c.bfgs deleted, as requested
Begin final coordinates

ATOMIC_POSITIONS (angstrom)
C             0.0000000000        0.0000000000        7.8616814578
C             1.2565955489        0.7254957784        7.5140236926
C            -1.2360849783        2.1265894905        7.4459612627
C             0.0000000000        2.8408534061        7.4759703776
C            -2.4663619669        4.2574917422        7.4459612627
C            -1.2297487819        4.9708407769        7.4759703776
C             2.4597230114        0.0071862472        7.4459612627
C             3.6900000000        0.7139008215        7.3866277428
C             1.2360849783        2.1265894905        7.4459612627
C             2.4632562472        2.8386833292        7.3866277428
C             0.0000000000        4.2608449866        7.4718474018
C             1.2297487819        4.9708407769        7.4759703776
C             4.9202769886        0.0071862472        7.4459612627
C             6.1234044511        0.7254957784        7.5140236926
C             3.6900000000        2.1304224933        7.3737817432
C             4.9167437528        2.8386833292        7.3866277428
C             2.4663619669        4.2574917422        7.4459612627
C             3.6900000000        4.9402759231        7.5140236926
H             0.0000000000        0.0000000000        8.9900645852
End final coordinates



     Writing all to output data dir ./graphene_h_over_c.save/

     init_run     :      5.32s CPU      5.66s WALL (       1 calls)
     electrons    :    366.16s CPU    390.95s WALL (      13 calls)
     update_pot   :     32.56s CPU     32.91s WALL (      12 calls)
     forces       :     32.75s CPU     33.47s WALL (      13 calls)
     stress       :    152.40s CPU    154.93s WALL (      13 calls)

     Called by init_run:
     wfcinit      :      1.65s CPU      1.68s WALL (       1 calls)
     potinit      :      1.34s CPU      1.39s WALL (       1 calls)
     hinit0       :      1.61s CPU      1.83s WALL (       1 calls)

     Called by electrons:
     c_bands      :    255.32s CPU    258.94s WALL (      85 calls)
     sum_band     :     66.80s CPU     69.38s WALL (      85 calls)
     v_of_rho     :     24.29s CPU     24.68s WALL (      97 calls)
     newd         :     13.82s CPU     15.13s WALL (      97 calls)
     PAW_pot      :      6.45s CPU      6.55s WALL (     109 calls)
     mix_rho      :      2.64s CPU      2.67s WALL (      85 calls)

     Called by c_bands:
     init_us_2    :      4.45s CPU      4.51s WALL (    1463 calls)
     init_us_2:cp :      4.44s CPU      4.51s WALL (    1463 calls)
     cegterg      :    246.60s CPU    250.06s WALL (     595 calls)

     Called by *egterg:
     cdiaghg      :      7.09s CPU      7.15s WALL (    2775 calls)
     h_psi        :    188.06s CPU    190.94s WALL (    2873 calls)
     s_psi        :     11.13s CPU     11.23s WALL (    2873 calls)
     g_psi        :      0.96s CPU      0.98s WALL (    2271 calls)

     Called by h_psi:
     h_psi:calbec :     12.09s CPU     12.22s WALL (    2873 calls)
     vloc_psi     :    162.59s CPU    165.19s WALL (    2873 calls)
     add_vuspsi   :     11.41s CPU     11.53s WALL (    2873 calls)

     General routines
     calbec       :     18.22s CPU     18.44s WALL (    4007 calls)
     fft          :     22.81s CPU     23.41s WALL (    1573 calls)
     ffts         :      0.26s CPU      0.26s WALL (     182 calls)
     fftw         :     90.08s CPU     91.24s WALL (  183904 calls)
     interpolate  :      1.38s CPU      1.40s WALL (      97 calls)

     Parallel routines

     PWSCF        :   9m53.21s CPU  10m46.98s WALL


   This run was terminated on:  22:20:28   4Feb2025            

=------------------------------------------------------------------------------=
   JOB DONE.
=------------------------------------------------------------------------------=
