19
Lattice="7.380000070418783 0.0 0.0 -3.6900000352093913 6.3912645609844265 0.0 0.0 0.0 14.999997743127583" Properties=species:S:1:pos:R:3:forces:R:3 energy=-4528.986480885574 free_energy=-4528.986480885574 stress="-0.00862425447956845 -0.0 -0.0 -0.0 -0.00862425447956845 -0.0 -0.0 -0.0 -0.0008511321092898917" pbc="T T T"
C        0.00000000       0.00000000       7.49489560       0.00000000      -0.52673496      -0.20938524
C        1.23000026       0.71014051       7.49489560       0.45609133      -0.26332442      -0.20937727
C       -1.23000026       2.13042226       7.49489560      -0.45616589       0.26336735      -0.20938524
C        0.00000000       2.84056350       7.49489560      -0.00000000       0.52664909      -0.20937727
C       -2.45999978       4.26084525       7.49489560       0.06263130       0.03616025       0.03438233
C       -1.23000026       4.97098576       7.49489560      -0.06277040      -0.03624047       0.03442039
C        2.45999978       0.00000000       7.49489560       0.05704352      -0.03293403       0.05587881
C        3.69000004       0.71014051       7.49489560       0.00000000       0.07248094       0.03442039
C        1.23000026       2.13042226       7.49489560       0.45616589       0.26336735      -0.20938524
C        2.45999978       2.84056350       7.49489560       0.05717388       0.03300937       0.05584976
C        0.00000000       4.26084525       7.49489560      -0.00000000       0.06586832       0.05587881
C        1.23000026       4.97098576       7.49489560       0.06277040      -0.03624047       0.03442039
C        4.92000029       0.00000000       7.49489560      -0.05704352      -0.03293403       0.05587881
C        6.14999981       0.71014051       7.49489560      -0.45609133      -0.26332442      -0.20937727
C        3.69000004       2.13042226       7.49489560      -0.00000000      -0.07232050       0.03438233
C        4.92000029       2.84056350       7.49489560      -0.05717388       0.03300937       0.05584976
C        2.45999978       4.26084525       7.49489560      -0.06263130       0.03616025       0.03438233
C        3.69000004       4.97098576       7.49489560       0.00000000      -0.06601873       0.05584976
H        0.00000000       1.42028175       8.59489494       0.00000000      -0.00000000       0.71469469
19
Lattice="7.380000070418783 0.0 0.0 -3.6900000352093913 6.3912645609844265 0.0 0.0 0.0 14.999997743127583" Properties=species:S:1:pos:R:3:forces:R:3 energy=-4529.01346301353 free_energy=-4529.01346301353 stress="-0.008596709751112467 -0.0 -0.0 -0.0 -0.008596709751112467 0.0 -0.0 0.0 -0.0007189174127011707" pbc="T T T"
C        0.00000000      -0.01084111       7.49058566      -0.00000000       0.20169636      -0.17731819
C        1.23938715       0.70472116       7.49058583      -0.17473783       0.10088495      -0.17733001
C       -1.23938868       2.13584305       7.49058566       0.17467406      -0.10084818      -0.17731819
C        0.00000000       2.85140267       7.49058583       0.00000000      -0.20176989      -0.17733001
C       -2.45871094       4.26158923       7.49560281      -0.02528269      -0.01459692       0.04184985
C       -1.23129192       4.97023993       7.49560360       0.02531328       0.01461466       0.04179200
C        2.46117405      -0.00067784       7.49604525       0.19898307      -0.11488306       0.03363440
C        3.69000000       0.71163262       7.49560360      -0.00000000      -0.02922933       0.04179200
C        1.23938868       2.13584305       7.49058566      -0.17467406      -0.10084818      -0.17731819
C        2.46117674       2.84124271       7.49604465       0.19897279       0.11487715       0.03366680
C        0.00000000       4.26220067       7.49604525       0.00000000       0.22976586       0.03363440
C        1.23129192       4.97023993       7.49560360      -0.02531328       0.01461466       0.04179200
C        4.91882595      -0.00067784       7.49604525      -0.19898307      -0.11488306       0.03363440
C        6.14061285       0.70472116       7.49058583       0.17473783       0.10088495      -0.17733001
C        3.69000000       2.12893401       7.49560281       0.00000000       0.02919385       0.04184985
C        4.91882326       2.84124271       7.49604465      -0.19897279       0.11487715       0.03366680
C        2.45871094       4.26158923       7.49560281       0.02528269      -0.01459692       0.04184985
C        3.69000000       4.96962704       7.49604465       0.00000000      -0.22975404       0.03366680
H        0.00000000       1.42028166       8.60960481       0.00000000       0.00000000       0.61111574
19
Lattice="7.380000070418783 0.0 0.0 -3.6900000352093913 6.3912645609844265 0.0 0.0 0.0 14.999997743127583" Properties=species:S:1:pos:R:3:forces:R:3 energy=-4529.031556815061 free_energy=-4529.031556815061 stress="-0.00850581214720772 0.0 -0.0 0.0 -0.00850581214720772 0.0 -0.0 0.0 -0.0005977206074948431" pbc="T T T"
C        0.00000000      -0.01188470       7.48460595       0.00000000       0.13734602      -0.13728637
C        1.24028878       0.70420060       7.48460595      -0.11888755       0.06863971      -0.13729254
C       -1.24029245       2.13636484       7.48460595       0.11894515      -0.06867288      -0.13728637
C        0.00000000       2.85244379       7.48460595      -0.00000000      -0.13727943      -0.13729254
C       -2.45861495       4.26164465       7.49685990      -0.06872713      -0.03967958       0.04777264
C       -1.23138868       4.97018406       7.49685983       0.06889091       0.03977419       0.04777213
C        2.46605945      -0.00349843       7.49734527      -0.12515179       0.07225623       0.00148250
C        3.69000000       0.71174434       7.49685983       0.00000000      -0.07954839       0.04777213
C        1.24029245       2.13636484       7.48460595      -0.11894515      -0.06867288      -0.13728637
C        2.46606325       2.84406394       7.49734507      -0.12538087      -0.07238864       0.00148378
C        0.00000000       4.26784184       7.49734527       0.00000000      -0.14451271       0.00148250
C        1.23138868       4.97018406       7.49685983      -0.06889091       0.03977419       0.04777213
C        4.91394055      -0.00349843       7.49734527       0.12515179       0.07225623       0.00148250
C        6.13971122       0.70420060       7.48460595       0.11888755       0.06863971      -0.13729254
C        3.69000000       2.12882317       7.49685990       0.00000000       0.07935916       0.04777264
C        4.91393675       2.84406394       7.49734507       0.12538087      -0.07238864       0.00148378
C        2.45861495       4.26164465       7.49685990       0.06872713      -0.03967958       0.04777264
C        3.69000000       4.96398458       7.49734507       0.00000000       0.14477728       0.00148378
H        0.00000000       1.42028166       8.63014232       0.00000000       0.00000000       0.52820306
19
Lattice="7.380000070418783 0.0 0.0 -3.6900000352093913 6.3912645609844265 0.0 0.0 0.0 14.999997743127583" Properties=species:S:1:pos:R:3:forces:R:3 energy=-4529.05972549541 free_energy=-4529.05972549541 stress="-0.008262500379179865 -0.0 -0.0 -0.0 -0.008262500379179865 -0.0 -0.0 -0.0 -0.0005123319492812941" pbc="T T T"
C        0.00000000      -0.01179558       7.47200292       0.00000000       0.12232820      -0.07097967
C        1.24021072       0.70424567       7.47200257      -0.10563249       0.06098682      -0.07095165
C       -1.24021527       2.13632028       7.47200292       0.10593922      -0.06116397      -0.07097967
C        0.00000000       2.85235365       7.47200257       0.00000000      -0.12197365      -0.07095165
C       -2.46043654       4.26059295       7.50008914       0.08908744       0.05143466       0.04492206
C       -1.22956326       4.97123797       7.50008835      -0.08909927      -0.05144135       0.04492051
C        2.46755115      -0.00435966       7.49918902      -0.23013687       0.13286947      -0.05106545
C        3.69000000       0.70963653       7.50008835       0.00000000       0.10288295       0.04492051
C        1.24021527       2.13632028       7.47200292      -0.10593922      -0.06116397      -0.07097967
C        2.46754923       2.84492187       7.49918911      -0.22993967      -0.13275583      -0.05106956
C        0.00000000       4.26956430       7.49918902       0.00000000      -0.26573920      -0.05106545
C        1.22956326       4.97123797       7.50008835       0.08909927      -0.05144135       0.04492051
C        4.91244885      -0.00435966       7.49918902       0.23013687       0.13286947      -0.05106545
C        6.13978928       0.70424567       7.47200257       0.10563249       0.06098682      -0.07095165
C        3.69000000       2.13092657       7.50008914       0.00000000      -0.10286932       0.04492206
C        4.91245077       2.84492187       7.49918911       0.22993967      -0.13275583      -0.05106956
C        2.46043654       4.26059295       7.50008914      -0.08908744       0.05143466       0.04492206
C        3.69000000       4.96226872       7.49918911      -0.00000000       0.26551165      -0.05106956
H        0.00000000       1.42028166       8.67532484       0.00000000       0.00000000       0.46267104
19
Lattice="7.380000070418783 0.0 0.0 -3.6900000352093913 6.3912645609844265 0.0 0.0 0.0 14.999997743127583" Properties=species:S:1:pos:R:3:forces:R:3 energy=-4529.097382105029 free_energy=-4529.097382105029 stress="-0.007718951070981791 -0.0 -0.0 -0.0 -0.007718951070981791 0.0 -0.0 0.0 -0.000607820341262037" pbc="T T T"
C        0.00000000      -0.01013774       7.45441131      -0.00000000       0.03107770      -0.00077030
C        1.23878047       0.70507143       7.45441130      -0.02706137       0.01562382      -0.00077776
C       -1.23877954       2.13549137       7.45441131       0.02691405      -0.01553898      -0.00077030
C        0.00000000       2.85070214       7.45441130      -0.00000000      -0.03124790      -0.00077776
C       -2.45929961       4.26124935       7.50503365      -0.03289161      -0.01898991       0.02456046
C       -1.23069840       4.97058260       7.50503152       0.03279622       0.01893489       0.02456869
C        2.46712739      -0.00411500       7.50054077      -0.27588785       0.15928395      -0.10487633
C        3.69000000       0.71094728       7.50503152      -0.00000000      -0.03787004       0.02456869
C        1.23877954       2.13549137       7.45441131      -0.02691405      -0.01553898      -0.00077030
C        2.46712749       2.84467838       7.50054131      -0.27599738      -0.15934720      -0.10485884
C        0.00000000       4.26907499       7.50054077       0.00000000      -0.31856765      -0.10487633
C        1.23069840       4.97058260       7.50503152      -0.03279622       0.01893489       0.02456869
C        4.91287261      -0.00411500       7.50054077       0.27588785       0.15928395      -0.10487633
C        6.14121953       0.70507143       7.45441130       0.02706137       0.01562382      -0.00077776
C        3.69000000       2.12961376       7.50503365      -0.00000000       0.03798008       0.02456046
C        4.91287251       2.84467838       7.50054131       0.27599738      -0.15934720      -0.10485884
C        2.45929961       4.26124935       7.50503365       0.03289161      -0.01898991       0.02456046
C        3.69000000       4.96275570       7.50054131       0.00000000       0.31869415      -0.10485884
H        0.00000000       1.42028166       8.74309862       0.00000000       0.00000000       0.48646223
19
Lattice="7.380000070418783 0.0 0.0 -3.6900000352093913 6.3912645609844265 0.0 0.0 0.0 14.999997743127583" Properties=species:S:1:pos:R:3:forces:R:3 energy=-4529.149674629574 free_energy=-4529.149674629574 stress="-0.006729177161796781 -0.0 -0.0 -0.0 -0.006729177161796781 -0.0 -0.0 -0.0 -0.0007813521305347333" pbc="T T T"
C        0.00000000      -0.00849181       7.43021970       0.00000000       0.00116600       0.07359089
C        1.23735313       0.70589550       7.43021946      -0.00094128       0.00054353       0.07360271
C       -1.23735412       2.13466840       7.43021970       0.00100967      -0.00058287       0.07359089
C        0.00000000       2.84905399       7.43021946       0.00000000      -0.00108681       0.07360271
C       -2.45986338       4.26092387       7.51192000       0.02828599       0.01633088      -0.02121289
C       -1.23013493       4.97090792       7.51191585      -0.02836878      -0.01637870      -0.02117123
C        2.46544032      -0.00314097       7.50090304      -0.24353541       0.14060515      -0.14867455
C        3.69000000       0.71029663       7.51191585       0.00000000       0.03275740      -0.02117123
C        1.23735412       2.13466840       7.43021970      -0.00100967      -0.00058287       0.07359089
C        2.46543822       2.84370308       7.50090492      -0.24340119      -0.14052776      -0.14864807
C        0.00000000       4.26712693       7.50090304      -0.00000000      -0.28121055      -0.14867455
C        1.23013493       4.97090792       7.51191585       0.02836878      -0.01637870      -0.02117123
C        4.91455968      -0.00314097       7.50090304       0.24353541       0.14060515      -0.14867455
C        6.14264687       0.70589550       7.43021946       0.00094128       0.00054353       0.07360271
C        3.69000000       2.13026473       7.51192000      -0.00000000      -0.03266175      -0.02121289
C        4.91456178       2.84370308       7.50090492       0.24340119      -0.14052776      -0.14864807
C        2.45986338       4.26092387       7.51192000      -0.02828599       0.01633088      -0.02121289
C        3.69000000       4.96470631       7.50090492       0.00000000       0.28105551      -0.14864807
H        0.00000000       1.42028166       8.84475929       0.00000000       0.00000000       0.57753893
19
Lattice="7.380000070418783 0.0 0.0 -3.6900000352093913 6.3912645609844265 0.0 0.0 0.0 14.999997743127583" Properties=species:S:1:pos:R:3:forces:R:3 energy=-4529.219063114204 free_energy=-4529.219063114204 stress="-0.005131582911349736 -0.0 -0.0 -0.0 -0.005131582911349736 -0.0 -0.0 -0.0 -0.0008694952615938809" pbc="T T T"
C        0.00000000      -0.00650259       7.39614177      -0.00000000      -0.04982978       0.16842114
C        1.23563193       0.70688923       7.39614153       0.04308552      -0.02487542       0.16841986
C       -1.23563141       2.13367379       7.39614177      -0.04315365       0.02491476       0.16842114
C        0.00000000       2.84706652       7.39614153       0.00000000       0.04975085       0.16841986
C       -2.45974375       4.26099293       7.52108253       0.02623914       0.01514920      -0.09158449
C       -1.23025424       4.97083903       7.52107617      -0.02634275      -0.01520910      -0.09152716
C        2.46330888      -0.00191038       7.50040328      -0.21962980       0.12680321      -0.18093393
C        3.69000000       0.71043440       7.52107617       0.00000000       0.03041821      -0.09152716
C        1.23563141       2.13367379       7.39614177       0.04315365       0.02491476       0.16842114
C        2.46330777       2.84247307       7.50040737      -0.21958944      -0.12678007      -0.18091439
C        0.00000000       4.26466575       7.50040328       0.00000000      -0.25360667      -0.18093393
C        1.23025424       4.97083903       7.52107617       0.02634275      -0.01520910      -0.09152716
C        4.91669112      -0.00191038       7.50040328       0.21962980       0.12680321      -0.18093393
C        6.14436807       0.70688923       7.39614153      -0.04308552      -0.02487542       0.16841986
C        3.69000000       2.13012660       7.52108253      -0.00000000      -0.03029839      -0.09158449
C        4.91669223       2.84247307       7.50040737       0.21958944      -0.12678007      -0.18091439
C        2.45974375       4.26099293       7.52108253      -0.02623914       0.01514920      -0.09158449
C        3.69000000       4.96716633       7.50040737       0.00000000       0.25356014      -0.18091439
H        0.00000000       1.42028166       8.99725029       0.00000000      -0.00000000       0.62435795
19
Lattice="7.380000070418783 0.0 0.0 -3.6900000352093913 6.3912645609844265 0.0 0.0 0.0 14.999997743127583" Properties=species:S:1:pos:R:3:forces:R:3 energy=-4529.280527779909 free_energy=-4529.280527779909 stress="-0.0029316772653318495 -0.0 -0.0 -0.0 -0.0029316772653318495 -0.0 -0.0 -0.0 -0.0005343677320460809" pbc="T T T"
C        0.00000000      -0.00395761       7.34870594       0.00000000      -0.13449004       0.30202749
C        1.23342543       0.70816316       7.34870525       0.11664529      -0.06734516       0.30201103
C       -1.23342740       2.13240130       7.34870594      -0.11647174       0.06724489       0.30202749
C        0.00000000       2.84451867       7.34870525      -0.00000000       0.13469032       0.30201103
C       -2.45969279       4.26102236       7.53252942       0.03047580       0.01759534      -0.19863417
C       -1.23030561       4.97080937       7.53252015      -0.03054933      -0.01763777      -0.19855498
C        2.45970656       0.00016942       7.49826961      -0.13246452       0.07647849      -0.18763679
C        3.69000000       0.71049372       7.53252015       0.00000000       0.03527528      -0.19855498
C        1.23342740       2.13240130       7.34870594       0.11647174       0.06724489       0.30202749
C        2.45970321       2.84039197       7.49827677      -0.13215573      -0.07630006      -0.18760903
C        0.00000000       4.26050615       7.49826961      -0.00000000      -0.15295698      -0.18763679
C        1.23030561       4.97080937       7.53252015       0.03054933      -0.01763777      -0.19855498
C        4.92029344       0.00016942       7.49826961       0.13246452       0.07647849      -0.18763679
C        6.14657457       0.70816316       7.34870525      -0.11664529      -0.06734516       0.30201103
C        3.69000000       2.13006775       7.53252942       0.00000000      -0.03519043      -0.19863417
C        4.92029679       2.84039197       7.49827677       0.13215573      -0.07630006      -0.18760903
C        2.45969279       4.26102236       7.53252942      -0.03047580       0.01759534      -0.19863417
C        3.69000000       4.97132852       7.49827677      -0.00000000       0.15260011      -0.18760903
H        0.00000000       1.42028166       9.22598679       0.00000000      -0.00000000       0.50518938
19
Lattice="7.380000070418783 0.0 0.0 -3.6900000352093913 6.3912645609844265 0.0 0.0 0.0 14.999997743127583" Properties=species:S:1:pos:R:3:forces:R:3 energy=-4529.303257857022 free_energy=-4529.303257857022 stress="-0.0024285268922025495 -0.0 -0.0 -0.0 -0.0024285268922025495 0.0 -0.0 0.0 -0.00036359041561898287" pbc="T T T"
C        0.00000000      -0.00359930       7.33807861       0.00000000      -0.11167252       0.32272204
C        1.23311850       0.70834037       7.33807720       0.09650070      -0.05571478       0.32268527
C       -1.23311709       2.13222214       7.33807861      -0.09671127       0.05583613       0.32272204
C        0.00000000       2.84416425       7.33807720       0.00000000       0.11142930       0.32268527
C       -2.45962292       4.26106269       7.53276507       0.05411709       0.03124456      -0.22905444
C       -1.23037608       4.97076869       7.53275562      -0.05414949      -0.03126333      -0.22900327
C        2.45722536       0.00160194       7.49513143      -0.00661622       0.00381989      -0.16719627
C        3.69000000       0.71057509       7.53275562      -0.00000000       0.06252640      -0.22900327
C        1.23311709       2.13222214       7.33807861       0.09671127       0.05583613       0.32272204
C        2.45722679       2.83896221       7.49514009      -0.00673706      -0.00388956      -0.16720372
C        0.00000000       4.25764111       7.49513143      -0.00000000      -0.00763952      -0.16719627
C        1.23037608       4.97076869       7.53275562       0.05414949      -0.03126333      -0.22900327
C        4.92277464       0.00160194       7.49513143       0.00661622       0.00381989      -0.16719627
C        6.14688150       0.70834037       7.33807720      -0.09650070      -0.05571478       0.32268527
C        3.69000000       2.12998708       7.53276507       0.00000000      -0.06248912      -0.22905444
C        4.92277321       2.83896221       7.49514009       0.00673706      -0.00388956      -0.16720372
C        2.45962292       4.26106269       7.53276507      -0.05411709       0.03124456      -0.22905444
C        3.69000000       4.97418805       7.49514009      -0.00000000       0.00777913      -0.16720372
H        0.00000000       1.42028166       9.30716412       0.00000000      -0.00000000       0.44115091
19
Lattice="7.380000070418783 0.0 0.0 -3.6900000352093913 6.3912645609844265 0.0 0.0 0.0 14.999997743127583" Properties=species:S:1:pos:R:3:forces:R:3 energy=-4529.343341449969 free_energy=-4529.343341449969 stress="-0.002238468265856263 0.0 -0.0 0.0 -0.002238468265856263 -0.0 -0.0 -0.0 -0.0002341301918758602" pbc="T T T"
C        0.00000000      -0.00366802       7.33438438      -0.00000000      -0.03249617       0.31346016
C        1.23317288       0.70830897       7.33438093       0.02843769      -0.01641855       0.31351878
C       -1.23317660       2.13225650       7.33438438      -0.02814252       0.01624809       0.31346016
C        0.00000000       2.84422705       7.33438093       0.00000000       0.03283684       0.31351878
C       -2.45912537       4.26134996       7.52789832       0.05435492       0.03138186      -0.24673026
C       -1.23087409       4.97048116       7.52788909      -0.05436803      -0.03138931      -0.24668398
C        2.45426981       0.00330833       7.48881032       0.16842294      -0.09723912      -0.12847751
C        3.69000000       0.71115014       7.52788909      -0.00000000       0.06277863      -0.24668398
C        1.23317660       2.13225650       7.33438438       0.02814252       0.01624809       0.31346016
C        2.45426738       2.83725359       7.48881997       0.16875924       0.09743324      -0.12845437
C        0.00000000       4.25422833       7.48881032       0.00000000       0.19447799      -0.12847751
C        1.23087409       4.97048116       7.52788909       0.05436803      -0.03138931      -0.24668398
C        4.92573019       0.00330833       7.48881032      -0.16842294      -0.09723912      -0.12847751
C        6.14682712       0.70830897       7.33438093      -0.02843769      -0.01641855       0.31351878
C        3.69000000       2.12941255       7.52789832       0.00000000      -0.06276371      -0.24673026
C        4.92573262       2.83725359       7.48881997      -0.16875924       0.09743324      -0.12845437
C        2.45912537       4.26134996       7.52789832      -0.05435492       0.03138186      -0.24673026
C        3.69000000       4.97760528       7.48881997      -0.00000000      -0.19486648      -0.12845437
H        0.00000000       1.42028166       9.39645919       0.00000000      -0.00000000       0.37010207
19
Lattice="7.380000070418783 0.0 0.0 -3.6900000352093913 6.3912645609844265 0.0 0.0 0.0 14.999997743127583" Properties=species:S:1:pos:R:3:forces:R:3 energy=-4529.413046130879 free_energy=-4529.413046130879 stress="-0.0023945550604401703 -0.0 -0.0 -0.0 -0.0023945550604401703 0.0 -0.0 0.0 -0.00010558812574793694" pbc="T T T"
C        0.00000000      -0.00349764       7.33798097       0.00000000       0.08207193       0.27284778
C        1.23303722       0.70838729       7.33797715      -0.07205002       0.04159814       0.27281461
C       -1.23302904       2.13217131       7.33798097       0.07107635      -0.04103583       0.27284778
C        0.00000000       2.84407041       7.33797715      -0.00000000      -0.08319627       0.27281461
C       -2.45828795       4.26183344       7.51443493       0.02332479       0.01346667      -0.25193186
C       -1.23171260       4.96999705       7.51442755      -0.02329574      -0.01344970      -0.25192543
C        2.45104215       0.00517182       7.47635129       0.38786917      -0.22393640      -0.06613160
C        3.69000000       0.71211837       7.51442755       0.00000000       0.02689940      -0.25192543
C        1.23302904       2.13217131       7.33798097      -0.07107635      -0.04103583       0.27284778
C        2.45105223       2.83539733       7.47636358       0.38691426       0.22338516      -0.06625296
C        0.00000000       4.25050135       7.47635129       0.00000000       0.44787280      -0.06613160
C        1.23171260       4.96999705       7.51442755       0.02329574      -0.01344970      -0.25192543
C        4.92895785       0.00517182       7.47635129      -0.38786917      -0.22393640      -0.06613160
C        6.14696278       0.70838729       7.33797715       0.07205002       0.04159814       0.27281461
C        3.69000000       2.12844559       7.51443493      -0.00000000      -0.02693333      -0.25193186
C        4.92894777       2.83539733       7.47636358      -0.38691426       0.22338516      -0.06625296
C        2.45828795       4.26183344       7.51443493      -0.02332479       0.01346667      -0.25193186
C        3.69000000       4.98131781       7.47636358       0.00000000      -0.44677031      -0.06625296
H        0.00000000       1.42028166       9.53040180       0.00000000      -0.00000000       0.27173912
19
Lattice="7.380000070418783 0.0 0.0 -3.6900000352093913 6.3912645609844265 0.0 0.0 0.0 14.999997743127583" Properties=species:S:1:pos:R:3:forces:R:3 energy=-4529.512898848201 free_energy=-4529.512898848201 stress="-0.002985848564628617 0.0 -0.0 0.0 -0.002985848564628617 0.0 -0.0 0.0 1.744499468878958e-05" pbc="T T T"
C        0.00000000      -0.00243676       7.35370912       0.00000000       0.18214132       0.19175827
C        1.23209026       0.70893402       7.35370088      -0.15563453       0.08985568       0.19204521
C       -1.23211029       2.13164087       7.35370912       0.15773898      -0.09107079       0.19175827
C        0.00000000       2.84297695       7.35370088       0.00000000      -0.17971111       0.19204521
C       -2.45764521       4.26220452       7.48688101      -0.01868318      -0.01078681      -0.22820083
C       -1.23235679       4.96962512       7.48687717       0.01880916       0.01085957      -0.22827514
C        2.44899365       0.00635452       7.45469278       0.56355136      -0.32536642       0.01119715
C        3.69000000       0.71286222       7.48687717       0.00000000      -0.02171914      -0.22827514
C        1.23211029       2.13164087       7.35370912      -0.15773898      -0.09107079       0.19175827
C        2.44897568       2.83419843       7.45470320       0.56564012       0.32657252       0.01122749
C        0.00000000       4.24813594       7.45469278       0.00000000       0.65073310       0.01119715
C        1.23235679       4.96962512       7.48687717      -0.01880916       0.01085957      -0.22827514
C        4.93100635       0.00635452       7.45469278      -0.56355136      -0.32536642       0.01119715
C        6.14790974       0.70893402       7.35370088       0.15563453       0.08985568       0.19204521
C        3.69000000       2.12770342       7.48688101      -0.00000000       0.02157336      -0.22820083
C        4.93102432       2.83419843       7.45470320      -0.56564012       0.32657252       0.01122749
C        2.45764521       4.26220452       7.48688101       0.01868318      -0.01078681      -0.22820083
C        3.69000000       4.98371561       7.45470320       0.00000000      -0.65314479       0.01122749
H        0.00000000       1.42028166       9.73131570       0.00000000      -0.00000000       0.15074352
19
Lattice="7.380000070418783 0.0 0.0 -3.6900000352093913 6.3912645609844265 0.0 0.0 0.0 14.999997743127583" Properties=species:S:1:pos:R:3:forces:R:3 energy=-4529.621165733585 free_energy=-4529.621165733585 stress="-0.0036671215151066103 -0.0 -0.0 -0.0 -0.0036671215151066103 0.0 -0.0 0.0 0.00019740388726788213" pbc="T T T"
C        0.00000000       0.00023525       7.38878306       0.00000000       0.10435131       0.05166889
C        1.22987462       0.71021322       7.38878285      -0.09894993       0.05712863       0.05145832
C       -1.22979627       2.13030487       7.38878306       0.09037093      -0.05217565       0.05166889
C        0.00000000       2.84041855       7.38878285      -0.00000000      -0.11425751       0.05145832
C       -2.45792735       4.26204163       7.43668201      -0.05046664      -0.02913677      -0.14260084
C       -1.23207334       4.96978877       7.43668213       0.05044350       0.02912340      -0.14277516
C        2.45084587       0.00528514       7.41958226       0.49090458      -0.28342401       0.08536474
C        3.69000000       0.71253492       7.43668213       0.00000000      -0.05824706      -0.14277516
C        1.22979627       2.13030487       7.38878306      -0.09037093      -0.05217565       0.05166889
C        2.45092448       2.83532357       7.41959491       0.48247805       0.27855897       0.08505903
C        0.00000000       4.25027470       7.41958226       0.00000000       0.56684777       0.08536474
C        1.23207334       4.96978877       7.43668213      -0.05044350       0.02912340      -0.14277516
C        4.92915413       0.00528514       7.41958226      -0.49090458      -0.28342401       0.08536474
C        6.15012538       0.71021322       7.38878285       0.09894993       0.05712863       0.05145832
C        3.69000000       2.12802920       7.43668201       0.00000000       0.05827380      -0.14260084
C        4.92907552       2.83532357       7.41959491      -0.48247805       0.27855897       0.08505903
C        2.45792735       4.26204163       7.43668201       0.05046664      -0.02913677      -0.14260084