
     Program PWSCF v.7.2 starts on  4Feb2025 at 22: 7:51 

     This program is part of the open-source Quantum ESPRESSO suite
     for quantum simulation of materials; please cite
         "P. Giannozzi et al., J. Phys.:Condens. Matter 21 395502 (2009);
         "P. Giannozzi et al., J. Phys.:Condens. Matter 29 465901 (2017);
         "P. Giannozzi et al., J. Chem. Phys. 152 154105 (2020);
          URL http://www.quantum-espresso.org", 
     in publications or presentations arising from this work. More details at
     http://www.quantum-espresso.org/quote

     Parallel version (MPI), running on    20 processors

     MPI processes distributed on     1 nodes
     111445 MiB available memory on the printing compute node when the environment starts

     Reading input from pw.in
Warning: card &CELL ignored
Warning: card / ignored
Warning: card &FCP ignored
Warning: card / ignored
Warning: card &RISM ignored
Warning: card / ignored

     Current dimensions of program PWSCF are:
     Max number of different atomic species (ntypx) = 10
     Max number of k-points (npk) =  40000
     Max angular momentum in pseudopotentials (lmaxx) =  4
     file C.pbe-n-kjpaw_psl.1.0.0.UPF: wavefunction(s)  2S 2P renormalized
     file H.pbe-kjpaw_psl.1.0.0.UPF: wavefunction(s)  1S renormalized
     Message from routine setup:
     using ibrav=0 with symmetry is DISCOURAGED, use correct ibrav instead

     R & G space division:  proc/nbgrp/npool/nimage =      20
     Subspace diagonalization in iterative solution of the eigenvalue problem:
     a serial algorithm will be used


     Parallelization info
     --------------------
     sticks:   dense  smooth     PW     G-vecs:    dense   smooth      PW
     Min         402     160     42                59248    14980    2098
     Max         403     161     43                59259    14995    2111
     Sum        8041    3217    859              1185017   299779   42103

     Using Slab Decomposition



     bravais-lattice index     =            0
     lattice parameter (alat)  =      13.9462  a.u.
     unit-cell volume          =    4774.5365 (a.u.)^3
     number of atoms/cell      =           19
     number of atomic types    =            2
     number of electrons       =        73.00
     number of Kohn-Sham states=           44
     kinetic-energy cutoff     =      60.0000  Ry
     charge density cutoff     =     600.0000  Ry
     scf convergence threshold =      1.0E-06
     mixing beta               =       0.7000
     number of iterations used =            8  plain     mixing
     energy convergence thresh.=      1.0E-04
     force convergence thresh. =      1.0E-03
     Exchange-correlation= SLA  PW   PBX  PBC
                           (   1   4   3   4   0   0   0)
     nstep                     =           50


     celldm(1)=  13.946179  celldm(2)=   0.000000  celldm(3)=   0.000000
     celldm(4)=   0.000000  celldm(5)=   0.000000  celldm(6)=   0.000000

     crystal axes: (cart. coord. in units of alat)
               a(1) = (   1.000000   0.000000   0.000000 )  
               a(2) = (  -0.500000   0.866025   0.000000 )  
               a(3) = (   0.000000   0.000000   2.032520 )  

     reciprocal axes: (cart. coord. in units 2 pi/alat)
               b(1) = (  1.000000  0.577350 -0.000000 )  
               b(2) = (  0.000000  1.154701  0.000000 )  
               b(3) = (  0.000000 -0.000000  0.492000 )  


     PseudoPot. # 1 for C  read from file:
     /home/ebarquero/practicas/p2/pseudo/C.pbe-n-kjpaw_psl.1.0.0.UPF
     MD5 check sum: 5f16ad9a65e90284d1d834d4ab3b0f7d
     Pseudo is Projector augmented-wave + core cor, Zval =  4.0
     Generated using &quot;atomic&quot; code by A. Dal Corso  v.6.3
     Shape of augmentation charge: PSQ
     Using radial grid of 1073 points,  4 beta functions with: 
                l(1) =   0
                l(2) =   0
                l(3) =   1
                l(4) =   1
     Q(r) pseudized with 0 coefficients 


     PseudoPot. # 2 for H  read from file:
     /home/ebarquero/practicas/p2/pseudo/H.pbe-kjpaw_psl.1.0.0.UPF
     MD5 check sum: d81a744832360e4a8af0b0b5b123bc2a
     Pseudo is Projector augmented-wave, Zval =  1.0
     Generated using &quot;atomic&quot; code by A. Dal Corso  v.6.3MaX
     Shape of augmentation charge: PSQ
     Using radial grid of  929 points,  2 beta functions with: 
                l(1) =   0
                l(2) =   0
     Q(r) pseudized with 0 coefficients 


     atomic species   valence    mass     pseudopotential
        C              4.00    12.01100     C ( 1.00)
        H              1.00     1.00800     H ( 1.00)

      6 Sym. Ops. (no inversion) found ( 4 have fractional translation)



   Cartesian axes

     site n.     atom                  positions (alat units)
         1           C   tau(   1) = (   0.0000000   0.0000000   1.0155685  )
         2           C   tau(   2) = (   0.1666667   0.0962250   1.0155685  )
         3           C   tau(   3) = (  -0.1666667   0.2886751   1.0155685  )
         4           C   tau(   4) = (   0.0000000   0.3849002   1.0155685  )
         5           C   tau(   5) = (  -0.3333333   0.5773503   1.0155685  )
         6           C   tau(   6) = (  -0.1666667   0.6735753   1.0155685  )
         7           C   tau(   7) = (   0.3333333   0.0000000   1.0155685  )
         8           C   tau(   8) = (   0.5000000   0.0962250   1.0155685  )
         9           C   tau(   9) = (   0.1666667   0.2886751   1.0155685  )
        10           C   tau(  10) = (   0.3333333   0.3849002   1.0155685  )
        11           C   tau(  11) = (   0.0000000   0.5773503   1.0155685  )
        12           C   tau(  12) = (   0.1666667   0.6735753   1.0155685  )
        13           C   tau(  13) = (   0.6666667   0.0000000   1.0155685  )
        14           C   tau(  14) = (   0.8333333   0.0962250   1.0155685  )
        15           C   tau(  15) = (   0.5000000   0.2886751   1.0155685  )
        16           C   tau(  16) = (   0.6666667   0.3849002   1.0155685  )
        17           C   tau(  17) = (   0.3333333   0.5773503   1.0155685  )
        18           C   tau(  18) = (   0.5000000   0.6735753   1.0155685  )
        19           H   tau(  19) = (   0.0000000   0.1924501   1.1646199  )

     number of k points=     7  Methfessel-Paxton smearing, width (Ry)=  0.0200
                       cart. coord. in units 2pi/alat
        k(    1) = (   0.0000000   0.0000000   0.0000000), wk =   0.0740741
        k(    2) = (   0.0000000   0.0000000   0.1640000), wk =   0.1481481
        k(    3) = (   0.0000000   0.3849002   0.0000000), wk =   0.4444444
        k(    4) = (   0.0000000   0.3849002   0.1640000), wk =   0.4444444
        k(    5) = (   0.3333333   0.5773503   0.0000000), wk =   0.1481481
        k(    6) = (   0.3333333   0.5773503   0.1640000), wk =   0.2962963
        k(    7) = (   0.0000000  -0.3849002   0.1640000), wk =   0.4444444

     Dense  grid:  1185017 G-vectors     FFT dimensions: ( 120, 120, 225)

     Smooth grid:   299779 G-vectors     FFT dimensions: (  72,  72, 144)

     Estimated max dynamical RAM per process >     139.68 MB

     Estimated total dynamical RAM >       2.73 GB

     Initial potential from superposition of free atoms

     starting charge      72.9992, renormalised to      73.0000

     negative rho (up, down):  4.012E-05 0.000E+00
     Starting wfcs are   73 randomized atomic wfcs
     Checking if some PAW data can be deallocated... 

     total cpu time spent up to now is        4.8 secs

     Self-consistent Calculation

     iteration #  1     ecut=    60.00 Ry     beta= 0.70
     Davidson diagonalization with overlap
     ethr =  1.00E-02,  avg # of iterations =  2.0

     negative rho (up, down):  3.614E-05 0.000E+00

     total cpu time spent up to now is        7.8 secs

     total energy              =    -332.54136980 Ry
     estimated scf accuracy    <       1.86977657 Ry

     iteration #  2     ecut=    60.00 Ry     beta= 0.70
     Davidson diagonalization with overlap
     ethr =  2.56E-03,  avg # of iterations =  2.6

     negative rho (up, down):  7.430E-05 0.000E+00

     total cpu time spent up to now is       10.5 secs

     total energy              =    -332.53179784 Ry
     estimated scf accuracy    <       0.87330847 Ry

     iteration #  3     ecut=    60.00 Ry     beta= 0.70
     Davidson diagonalization with overlap
     ethr =  1.20E-03,  avg # of iterations = 10.0

     negative rho (up, down):  8.803E-05 0.000E+00

     total cpu time spent up to now is       13.7 secs

     total energy              =    -332.78512698 Ry
     estimated scf accuracy    <       0.63493026 Ry

     iteration #  4     ecut=    60.00 Ry     beta= 0.70
     Davidson diagonalization with overlap
     ethr =  8.70E-04,  avg # of iterations =  2.4
     Minimization algorithm failed to find Fermi energy: reverting to bisection
     Possible cause: smearing is larger than the electronic band-gap.

     negative rho (up, down):  5.837E-05 0.000E+00

     total cpu time spent up to now is       16.1 secs

     total energy              =    -332.86967881 Ry
     estimated scf accuracy    <       0.02919957 Ry

     iteration #  5     ecut=    60.00 Ry     beta= 0.70
     Davidson diagonalization with overlap
     ethr =  4.00E-05,  avg # of iterations =  9.6
     Minimization algorithm failed to find Fermi energy: reverting to bisection
     Possible cause: smearing is larger than the electronic band-gap.

     negative rho (up, down):  5.040E-05 0.000E+00

     total cpu time spent up to now is       19.6 secs

     total energy              =    -332.87395659 Ry
     estimated scf accuracy    <       0.00517021 Ry

     iteration #  6     ecut=    60.00 Ry     beta= 0.70
     Davidson diagonalization with overlap
     ethr =  7.08E-06,  avg # of iterations =  2.4

     negative rho (up, down):  5.103E-05 0.000E+00

     total cpu time spent up to now is       22.1 secs

     total energy              =    -332.87418806 Ry
     estimated scf accuracy    <       0.00094339 Ry

     iteration #  7     ecut=    60.00 Ry     beta= 0.70
     Davidson diagonalization with overlap
     ethr =  1.29E-06,  avg # of iterations =  6.9

     negative rho (up, down):  5.113E-05 0.000E+00

     total cpu time spent up to now is       25.1 secs

     total energy              =    -332.87437853 Ry
     estimated scf accuracy    <       0.00001673 Ry

     iteration #  8     ecut=    60.00 Ry     beta= 0.70
     Davidson diagonalization with overlap
     ethr =  2.29E-08,  avg # of iterations =  5.0

     negative rho (up, down):  5.119E-05 0.000E+00

     total cpu time spent up to now is       28.7 secs

     total energy              =    -332.87439407 Ry
     estimated scf accuracy    <       0.00001492 Ry

     iteration #  9     ecut=    60.00 Ry     beta= 0.70
     Davidson diagonalization with overlap
     ethr =  2.04E-08,  avg # of iterations =  2.3

     negative rho (up, down):  5.120E-05 0.000E+00

     total cpu time spent up to now is       31.2 secs

     total energy              =    -332.87439532 Ry
     estimated scf accuracy    <       0.00000130 Ry

     iteration # 10     ecut=    60.00 Ry     beta= 0.70
     Davidson diagonalization with overlap
     ethr =  1.78E-09,  avg # of iterations =  4.3

     negative rho (up, down):  5.116E-05 0.000E+00

     total cpu time spent up to now is       34.2 secs

     End of self-consistent calculation

          k = 0.0000 0.0000 0.0000 ( 37425 PWs)   bands (ev):

   -21.3940 -19.1564 -18.7702 -18.7702 -18.5527 -18.5527 -18.5091 -14.3622
   -14.3622 -14.2770 -14.2770 -12.6417 -12.2793 -11.3801 -11.3801 -11.3788
   -11.3354 -11.3354 -11.3213  -9.6872  -7.6024  -7.5779  -7.5779  -7.4288
    -7.4288  -7.3336  -7.2531  -6.5028  -6.5028  -6.2017  -6.2017  -6.1814
    -4.7105  -4.7105  -1.7399  -1.7399  -1.6615  -1.6615  -0.8459   1.6921
     2.3426   2.7649   3.1587   3.1983

          k = 0.0000 0.0000 0.1640 ( 37504 PWs)   bands (ev):

   -21.3940 -19.1564 -18.7702 -18.7702 -18.5527 -18.5527 -18.5091 -14.3622
   -14.3622 -14.2770 -14.2770 -12.6417 -12.2793 -11.3801 -11.3801 -11.3788
   -11.3354 -11.3354 -11.3213  -9.6872  -7.6024  -7.5779  -7.5779  -7.4288
    -7.4288  -7.3336  -7.2531  -6.5029  -6.5029  -6.2017  -6.2017  -6.1814
    -4.7105  -4.7105  -1.7398  -1.7398  -1.6615  -1.6615  -0.8459   1.7366
     2.1423   3.0992   3.1587   3.1983

          k = 0.0000 0.3849 0.0000 ( 37488 PWs)   bands (ev):

   -21.1299 -20.1830 -19.3121 -19.2376 -17.6728 -17.5425 -16.7531 -16.0532
   -15.9676 -14.1394 -13.5627 -13.5352 -12.6564 -12.6496 -11.0495 -10.8565
    -9.8728  -9.8671  -9.4491  -8.7817  -8.7193  -8.4156  -8.1832  -8.0691
    -7.8333  -7.8269  -7.1552  -6.9967  -6.4558  -5.8317  -5.3747  -5.2883
    -5.1403  -4.4849  -3.6177  -3.5029  -1.1500   0.0156   0.1065   0.8224
     1.6356   1.7292   2.2701   2.7698

          k = 0.0000 0.3849 0.1640 ( 37470 PWs)   bands (ev):

   -21.1299 -20.1830 -19.3121 -19.2376 -17.6728 -17.5425 -16.7531 -16.0532
   -15.9676 -14.1394 -13.5627 -13.5352 -12.6564 -12.6496 -11.0495 -10.8565
    -9.8728  -9.8671  -9.4491  -8.7817  -8.7193  -8.4156  -8.1832  -8.0691
    -7.8333  -7.8269  -7.1552  -6.9967  -6.4558  -5.8317  -5.3747  -5.2883
    -5.1403  -4.4850  -3.6177  -3.5029  -1.1500   0.0156   0.1065   0.8226
     1.6356   1.7357   2.3074   2.5726

          k = 0.3333 0.5774 0.0000 ( 37407 PWs)   bands (ev):

   -20.8333 -20.2979 -20.2977 -17.9410 -17.8499 -17.8499 -15.8779 -15.8778
   -15.6823 -15.0357 -14.7558 -14.7558 -11.4486 -11.4485 -11.2721 -10.2089
    -9.8292  -9.8291  -9.3123  -9.0086  -9.0085  -8.9469  -8.2252  -8.2250
    -7.4469  -7.4468  -7.3027  -6.4825  -6.4824  -6.3902  -5.6397  -5.4404
    -5.4403  -3.8739  -3.8738  -3.6565  -1.6379  -0.1084  -0.1084   0.9544
     2.2323   2.2323   2.3825   2.7167

          k = 0.3333 0.5774 0.1640 ( 37485 PWs)   bands (ev):

   -20.8333 -20.2979 -20.2977 -17.9410 -17.8499 -17.8499 -15.8779 -15.8778
   -15.6823 -15.0357 -14.7558 -14.7558 -11.4486 -11.4486 -11.2721 -10.2089
    -9.8292  -9.8291  -9.3124  -9.0086  -9.0085  -8.9469  -8.2252  -8.2250
    -7.4469  -7.4468  -7.3027  -6.4825  -6.4824  -6.3902  -5.6397  -5.4404
    -5.4403  -3.8740  -3.8739  -3.6565  -1.6379  -0.1084  -0.1084   0.9546
     2.2322   2.2324   2.3825   2.7468

          k = 0.0000-0.3849 0.1640 ( 37470 PWs)   bands (ev):

   -21.1299 -20.1830 -19.3121 -19.2376 -17.6728 -17.5425 -16.7531 -16.0532
   -15.9676 -14.1394 -13.5627 -13.5352 -12.6564 -12.6496 -11.0495 -10.8565
    -9.8728  -9.8671  -9.4491  -8.7817  -8.7193  -8.4156  -8.1832  -8.0691
    -7.8333  -7.8269  -7.1552  -6.9967  -6.4558  -5.8317  -5.3747  -5.2883
    -5.1403  -4.4850  -3.6177  -3.5029  -1.1500   0.0156   0.1065   0.8226
     1.6356   1.7357   2.3074   2.5726

     the Fermi energy is    -1.3305 ev

!    total energy              =    -332.87439575 Ry
     total all-electron energy =     -1372.628141 Ry
     estimated scf accuracy    <       0.00000015 Ry
     smearing contrib. (-TS)   =       0.00141208 Ry
     internal energy E=F+TS    =    -332.87580784 Ry

     The total energy is F=E-TS. E is the sum of the following terms:
     one-electron contribution =   -1448.11619013 Ry
     hartree contribution      =     738.99543034 Ry
     xc contribution           =     -84.27870590 Ry
     ewald contribution        =     571.53129048 Ry
     one-center paw contrib.   =    -111.00763263 Ry

     convergence has been achieved in  10 iterations

     negative rho (up, down):  5.116E-05 0.000E+00

     Forces acting on atoms (cartesian axes, Ry/au):

     atom    1 type  1   force =     0.00000000   -0.02048673   -0.00814379
     atom    2 type  1   force =     0.01773913   -0.01024169   -0.00814348
     atom    3 type  1   force =    -0.01774203    0.01024336   -0.00814379
     atom    4 type  1   force =    -0.00000000    0.02048339   -0.00814348
     atom    5 type  1   force =     0.00243597    0.00140641    0.00133726
     atom    6 type  1   force =    -0.00244138   -0.00140953    0.00133874
     atom    7 type  1   force =     0.00221864   -0.00128093    0.00217334
     atom    8 type  1   force =     0.00000000    0.00281906    0.00133874
     atom    9 type  1   force =     0.01774203    0.01024336   -0.00814379
     atom   10 type  1   force =     0.00222371    0.00128386    0.00217221
     atom   11 type  1   force =    -0.00000000    0.00256187    0.00217334
     atom   12 type  1   force =     0.00244138   -0.00140953    0.00133874
     atom   13 type  1   force =    -0.00221864   -0.00128093    0.00217334
     atom   14 type  1   force =    -0.01773913   -0.01024169   -0.00814348
     atom   15 type  1   force =    -0.00000000   -0.00281282    0.00133726
     atom   16 type  1   force =    -0.00222371    0.00128386    0.00217221
     atom   17 type  1   force =    -0.00243597    0.00140641    0.00133726
     atom   18 type  1   force =     0.00000000   -0.00256772    0.00217221
     atom   19 type  2   force =     0.00000000   -0.00000000    0.02779720
     The non-local contrib.  to forces
     atom    1 type  1   force =     0.00000000    0.05990001    0.08694366
     atom    2 type  1   force =    -0.05189907    0.02996394    0.08694090
     atom    3 type  1   force =     0.05187493   -0.02995001    0.08694366
     atom    4 type  1   force =     0.00000000   -0.05992789    0.08694090
     atom    5 type  1   force =     0.00070015    0.00040423   -0.00127482
     atom    6 type  1   force =    -0.00072487   -0.00041851   -0.00127540
     atom    7 type  1   force =    -0.03017920    0.01742397    0.00874980
     atom    8 type  1   force =     0.00000000    0.00083701   -0.00127540
     atom    9 type  1   force =    -0.05187493   -0.02995001    0.08694366
     atom   10 type  1   force =    -0.03016803   -0.01741752    0.00874837
     atom   11 type  1   force =     0.00000000   -0.03484793    0.00874980
     atom   12 type  1   force =     0.00072487   -0.00041851   -0.00127540
     atom   13 type  1   force =     0.03017920    0.01742397    0.00874980
     atom   14 type  1   force =     0.05189907    0.02996394    0.08694090
     atom   15 type  1   force =     0.00000000   -0.00080847   -0.00127482
     atom   16 type  1   force =     0.03016803   -0.01741752    0.00874837
     atom   17 type  1   force =    -0.00070015    0.00040423   -0.00127482
     atom   18 type  1   force =     0.00000000    0.03483504    0.00874837
     atom   19 type  2   force =     0.00000000    0.00000000   -0.00846003
     The ionic contribution  to forces
     atom    1 type  1   force =     0.00000000   -0.50698829   -0.45091470
     atom    2 type  1   force =     0.43906474   -0.25349415   -0.45091470
     atom    3 type  1   force =    -0.43906474    0.25349415   -0.45091470
     atom    4 type  1   force =    -0.00000000    0.50698829   -0.45091470
     atom    5 type  1   force =    -0.01728629   -0.00998024   -0.09837841
     atom    6 type  1   force =     0.01728629    0.00998024   -0.09837841
     atom    7 type  1   force =     0.12164467   -0.07023158   -0.12465280
     atom    8 type  1   force =    -0.00000000   -0.01996049   -0.09837841
     atom    9 type  1   force =     0.43906474    0.25349415   -0.45091470
     atom   10 type  1   force =     0.12164467    0.07023158   -0.12465280
     atom   11 type  1   force =    -0.00000000    0.14046316   -0.12465280
     atom   12 type  1   force =    -0.01728629    0.00998024   -0.09837841
     atom   13 type  1   force =    -0.12164467   -0.07023158   -0.12465280
     atom   14 type  1   force =    -0.43906474   -0.25349415   -0.45091470
     atom   15 type  1   force =     0.00000000    0.01996049   -0.09837841
     atom   16 type  1   force =    -0.12164467    0.07023158   -0.12465280
     atom   17 type  1   force =     0.01728629   -0.00998024   -0.09837841
     atom   18 type  1   force =     0.00000000   -0.14046316   -0.12465280
     atom   19 type  2   force =     0.00000000   -0.00000000    4.04367547
     The local contribution  to forces
     atom    1 type  1   force =     0.00000000    0.42694227    0.35705512
     atom    2 type  1   force =    -0.36977803    0.21349145    0.35705857
     atom    3 type  1   force =     0.36974285   -0.21347114    0.35705512
     atom    4 type  1   force =     0.00000000   -0.42698289    0.35705857
     atom    5 type  1   force =     0.01882499    0.01086861    0.10089962
     atom    6 type  1   force =    -0.01893955   -0.01093475    0.10090201
     atom    7 type  1   force =    -0.08961896    0.05174153    0.11816388
     atom    8 type  1   force =     0.00000000    0.02186951    0.10090201
     atom    9 type  1   force =    -0.36974285   -0.21347114    0.35705512
     atom   10 type  1   force =    -0.08954750   -0.05170027    0.11816364
     atom   11 type  1   force =     0.00000000   -0.10348306    0.11816388
     atom   12 type  1   force =     0.01893955   -0.01093475    0.10090201
     atom   13 type  1   force =     0.08961896    0.05174153    0.11816388
     atom   14 type  1   force =     0.36977803    0.21349145    0.35705857
     atom   15 type  1   force =     0.00000000   -0.02173723    0.10089962
     atom   16 type  1   force =     0.08954750   -0.05170027    0.11816364
     atom   17 type  1   force =    -0.01882499    0.01086861    0.10089962
     atom   18 type  1   force =     0.00000000    0.10340055    0.11816364
     atom   19 type  2   force =     0.00000000    0.00000000   -4.00735894
     The core correction contribution to forces
     atom    1 type  1   force =     0.00000000   -0.00069322   -0.00131518
     atom    2 type  1   force =     0.00060095   -0.00034696   -0.00131521
     atom    3 type  1   force =    -0.00060035    0.00034661   -0.00131518
     atom    4 type  1   force =     0.00000000    0.00069392   -0.00131521
     atom    5 type  1   force =     0.00002789    0.00001610    0.00004848
     atom    6 type  1   force =    -0.00002778   -0.00001604    0.00004860
     atom    7 type  1   force =     0.00048677   -0.00028104   -0.00013461
     atom    8 type  1   force =     0.00000000    0.00003207    0.00004860
     atom    9 type  1   force =     0.00060035    0.00034661   -0.00131518
     atom   10 type  1   force =     0.00048688    0.00028110   -0.00013451
     atom   11 type  1   force =     0.00000000    0.00056208   -0.00013461
     atom   12 type  1   force =     0.00002778   -0.00001604    0.00004860
     atom   13 type  1   force =    -0.00048677   -0.00028104   -0.00013461
     atom   14 type  1   force =    -0.00060095   -0.00034696   -0.00131521
     atom   15 type  1   force =     0.00000000   -0.00003220    0.00004848
     atom   16 type  1   force =    -0.00048688    0.00028110   -0.00013451
     atom   17 type  1   force =    -0.00002789    0.00001610    0.00004848
     atom   18 type  1   force =     0.00000000   -0.00056220   -0.00013451
     atom   19 type  2   force =     0.00000000    0.00000000    0.00000000
     The Hubbard contrib.    to forces
     atom    1 type  1   force =     0.00000000    0.00000000    0.00000000
     atom    2 type  1   force =     0.00000000    0.00000000    0.00000000
     atom    3 type  1   force =     0.00000000    0.00000000    0.00000000
     atom    4 type  1   force =     0.00000000    0.00000000    0.00000000
     atom    5 type  1   force =     0.00000000    0.00000000    0.00000000
     atom    6 type  1   force =     0.00000000    0.00000000    0.00000000
     atom    7 type  1   force =     0.00000000    0.00000000    0.00000000
     atom    8 type  1   force =     0.00000000    0.00000000    0.00000000
     atom    9 type  1   force =     0.00000000    0.00000000    0.00000000
     atom   10 type  1   force =     0.00000000    0.00000000    0.00000000
     atom   11 type  1   force =     0.00000000    0.00000000    0.00000000
     atom   12 type  1   force =     0.00000000    0.00000000    0.00000000
     atom   13 type  1   force =     0.00000000    0.00000000    0.00000000
     atom   14 type  1   force =     0.00000000    0.00000000    0.00000000
     atom   15 type  1   force =     0.00000000    0.00000000    0.00000000
     atom   16 type  1   force =     0.00000000    0.00000000    0.00000000
     atom   17 type  1   force =     0.00000000    0.00000000    0.00000000
     atom   18 type  1   force =     0.00000000    0.00000000    0.00000000
     atom   19 type  2   force =     0.00000000    0.00000000    0.00000000
     The SCF correction term to forces
     atom    1 type  1   force =     0.00000000    0.00035251    0.00009977
     atom    2 type  1   force =    -0.00024946    0.00014402    0.00009943
     atom    3 type  1   force =     0.00030528   -0.00017625    0.00009977
     atom    4 type  1   force =    -0.00000000   -0.00028805    0.00009943
     atom    5 type  1   force =     0.00016923    0.00009771    0.00005487
     atom    6 type  1   force =    -0.00003547   -0.00002048    0.00005442
     atom    7 type  1   force =    -0.00011465    0.00006619    0.00005955
     atom    8 type  1   force =     0.00000000    0.00004096    0.00005442
     atom    9 type  1   force =    -0.00030528   -0.00017625    0.00009977
     atom   10 type  1   force =    -0.00019231   -0.00011103    0.00005999
     atom   11 type  1   force =     0.00000000   -0.00013238    0.00005955
     atom   12 type  1   force =     0.00003547   -0.00002048    0.00005442
     atom   13 type  1   force =     0.00011465    0.00006619    0.00005955
     atom   14 type  1   force =     0.00024946    0.00014402    0.00009943
     atom   15 type  1   force =     0.00000000   -0.00019541    0.00005487
     atom   16 type  1   force =     0.00019231   -0.00011103    0.00005999
     atom   17 type  1   force =    -0.00016923    0.00009771    0.00005487
     atom   18 type  1   force =     0.00000000    0.00022206    0.00005999
     atom   19 type  2   force =     0.00000000    0.00000000   -0.00004683

     Total force =     0.061762     Total SCF correction =     0.001021


     Computing stress (Cartesian axis) and pressure


     negative rho (up, down):  5.116E-05 0.000E+00
          total   stress  (Ry/bohr**3)                   (kbar)     P=        9.67
   0.00009393   0.00000000   0.00000000           13.82        0.00        0.00
   0.00000000   0.00009393   0.00000000            0.00       13.82        0.00
   0.00000000  -0.00000000   0.00000927            0.00       -0.00        1.36


     BFGS Geometry Optimization
     Energy error            =      0.0E+00 Ry
     Gradient error          =      2.8E-02 Ry/Bohr

     number of scf cycles    =   1
     number of bfgs steps    =   0

     energy             new  =    -332.8743957539 Ry

     new trust radius        =       0.0277971989 bohr
     new conv_thr            =       0.0000010000 Ry


ATOMIC_POSITIONS (angstrom)
C             0.0000000000       -0.0108411086        7.4905856587
C             1.2393871459        0.7047211599        7.4905858251
C            -1.2393886754        2.1358430476        7.4905856587
C             0.0000000000        2.8514026668        7.4905858251
C            -2.4587109393        4.2615892262        7.4956028142
C            -1.2312919232        4.9702399255        7.4956035983
C             2.4611740547       -0.0006778408        7.4960452494
C             3.6900000000        0.7116326155        7.4956035983
C             1.2393886754        2.1358430476        7.4905856587
C             2.4611767361        2.8412427133        7.4960446511
C             0.0000000000        4.2622006682        7.4960452494
C             1.2312919232        4.9702399255        7.4956035983
C             4.9188259453       -0.0006778408        7.4960452494
C             6.1406128541        0.7047211599        7.4905858251
C             3.6900000000        2.1289340142        7.4956028142
C             4.9188232639        2.8412427133        7.4960446511
C             2.4587109393        4.2615892262        7.4956028142
C             3.6900000000        4.9696270398        7.4960446511
H             0.0000000000        1.4202816622        8.6096048128



     Writing config-only to output data dir ./graphene_h_over_c.save/
     NEW-OLD atomic charge density approx. for the potential

     negative rho (up, down):  5.076E-05 0.000E+00

     total cpu time spent up to now is       49.1 secs

     Self-consistent Calculation

     iteration #  1     ecut=    60.00 Ry     beta= 0.70
     Davidson diagonalization with overlap
     ethr =  1.00E-06,  avg # of iterations =  5.7

     negative rho (up, down):  5.096E-05 0.000E+00

     total cpu time spent up to now is       53.4 secs

     total energy              =    -332.87607690 Ry
     estimated scf accuracy    <       0.00101913 Ry

     iteration #  2     ecut=    60.00 Ry     beta= 0.70
     Davidson diagonalization with overlap
     ethr =  1.40E-06,  avg # of iterations =  3.1

     negative rho (up, down):  5.278E-05 0.000E+00

     total cpu time spent up to now is       56.3 secs

     total energy              =    -332.87618410 Ry
     estimated scf accuracy    <       0.00062514 Ry

     iteration #  3     ecut=    60.00 Ry     beta= 0.70
     Davidson diagonalization with overlap
     ethr =  8.56E-07,  avg # of iterations =  2.9

     negative rho (up, down):  5.213E-05 0.000E+00

     total cpu time spent up to now is       58.9 secs

     total energy              =    -332.87634110 Ry
     estimated scf accuracy    <       0.00019460 Ry

     iteration #  4     ecut=    60.00 Ry     beta= 0.70
     Davidson diagonalization with overlap
     ethr =  2.67E-07,  avg # of iterations =  2.9

     negative rho (up, down):  5.126E-05 0.000E+00

     total cpu time spent up to now is       61.4 secs

     total energy              =    -332.87637713 Ry
     estimated scf accuracy    <       0.00000400 Ry

     iteration #  5     ecut=    60.00 Ry     beta= 0.70
     Davidson diagonalization with overlap
     ethr =  5.48E-09,  avg # of iterations =  3.7

     negative rho (up, down):  5.122E-05 0.000E+00

     total cpu time spent up to now is       64.4 secs

     End of self-consistent calculation

          k = 0.0000 0.0000 0.0000 ( 37425 PWs)   bands (ev):

   -21.3595 -19.0291 -18.7728 -18.7728 -18.5889 -18.5889 -18.5311 -14.3164
   -14.3164 -14.3123 -14.3123 -12.5983 -12.2926 -11.4239 -11.4029 -11.3346
   -11.3346 -11.3207 -11.3207  -9.6506  -7.5801  -7.5801  -7.4979  -7.4642
    -7.4642  -7.3479  -7.1881  -6.4995  -6.4995  -6.2305  -6.2305  -6.2024
    -4.7097  -4.7097  -1.7107  -1.7107  -1.6880  -1.6880  -0.9094   1.6915
     2.3450   2.7648   3.1076   3.1844

          k = 0.0000 0.0000 0.1640 ( 37504 PWs)   bands (ev):

   -21.3595 -19.0291 -18.7728 -18.7728 -18.5889 -18.5889 -18.5311 -14.3164
   -14.3164 -14.3123 -14.3123 -12.5983 -12.2926 -11.4239 -11.4029 -11.3346
   -11.3346 -11.3207 -11.3207  -9.6506  -7.5801  -7.5801  -7.4979  -7.4642
    -7.4642  -7.3479  -7.1881  -6.4995  -6.4995  -6.2306  -6.2306  -6.2024
    -4.7097  -4.7097  -1.7107  -1.7107  -1.6880  -1.6880  -0.9094   1.7362
     2.1434   3.1019   3.1076   3.1844

          k = 0.0000 0.3849 0.0000 ( 37488 PWs)   bands (ev):

   -21.0827 -20.1681 -19.2954 -19.2555 -17.6391 -17.5615 -16.7633 -16.0267
   -15.9820 -14.1409 -13.5709 -13.5085 -12.6881 -12.6248 -11.0190 -10.8637
    -9.9081  -9.8318  -9.3968  -8.7782  -8.7094  -8.4130  -8.1812  -8.0685
    -7.8564  -7.8061  -7.1566  -7.0078  -6.4562  -5.8314  -5.3587  -5.2876
    -5.1512  -4.4958  -3.6116  -3.5126  -1.2051   0.0277   0.0878   0.8109
     1.6578   1.7167   2.2667   2.7694

          k = 0.0000 0.3849 0.1640 ( 37470 PWs)   bands (ev):

   -21.0827 -20.1681 -19.2954 -19.2555 -17.6391 -17.5615 -16.7633 -16.0267
   -15.9820 -14.1409 -13.5709 -13.5085 -12.6881 -12.6248 -11.0190 -10.8637
    -9.9081  -9.8318  -9.3968  -8.7782  -8.7094  -8.4130  -8.1812  -8.0685
    -7.8564  -7.8061  -7.1566  -7.0078  -6.4562  -5.8314  -5.3587  -5.2876
    -5.1512  -4.4958  -3.6116  -3.5126  -1.2051   0.0277   0.0878   0.8111
     1.6578   1.7230   2.3041   2.5722

          k = 0.3333 0.5774 0.0000 ( 37407 PWs)   bands (ev):

   -20.7305 -20.3227 -20.3225 -17.9094 -17.8564 -17.8564 -15.8488 -15.8487
   -15.7343 -15.0073 -14.7691 -14.7690 -11.4180 -11.4179 -11.3259 -10.1462
    -9.8476  -9.8475  -9.2343  -9.0280  -9.0280  -8.8957  -8.2454  -8.2452
    -7.4341  -7.4340  -7.3259  -6.4836  -6.4836  -6.3876  -5.6334  -5.4411
    -5.4411  -3.8594  -3.8594  -3.6932  -1.6833  -0.1222  -0.1222   0.9497
     2.2534   2.2534   2.3469   2.7126

          k = 0.3333 0.5774 0.1640 ( 37485 PWs)   bands (ev):

   -20.7305 -20.3227 -20.3225 -17.9094 -17.8564 -17.8564 -15.8488 -15.8487
   -15.7343 -15.0073 -14.7691 -14.7690 -11.4180 -11.4179 -11.3259 -10.1462
    -9.8476  -9.8475  -9.2343  -9.0280  -9.0280  -8.8957  -8.2454  -8.2453
    -7.4341  -7.4340  -7.3259  -6.4836  -6.4836  -6.3876  -5.6334  -5.4411
    -5.4411  -3.8594  -3.8594  -3.6932  -1.6833  -0.1222  -0.1222   0.9499
     2.2533   2.2534   2.3468   2.7425

          k = 0.0000-0.3849 0.1640 ( 37470 PWs)   bands (ev):

   -21.0827 -20.1681 -19.2954 -19.2555 -17.6391 -17.5615 -16.7633 -16.0267
   -15.9820 -14.1409 -13.5709 -13.5085 -12.6881 -12.6248 -11.0190 -10.8637
    -9.9081  -9.8318  -9.3968  -8.7782  -8.7094  -8.4130  -8.1812  -8.0685
    -7.8564  -7.8061  -7.1566  -7.0078  -6.4562  -5.8314  -5.3587  -5.2876
    -5.1512  -4.4958  -3.6116  -3.5126  -1.2051   0.0277   0.0878   0.8111
     1.6578   1.7230   2.3041   2.5722

     the Fermi energy is    -1.3864 ev

!    total energy              =    -332.87637890 Ry
     total all-electron energy =     -1372.630124 Ry
     estimated scf accuracy    <       0.00000055 Ry
     smearing contrib. (-TS)   =       0.00149625 Ry
     internal energy E=F+TS    =    -332.87787515 Ry

     The total energy is F=E-TS. E is the sum of the following terms:
     one-electron contribution =   -1447.78223297 Ry
     hartree contribution      =     738.83644948 Ry
     xc contribution           =     -84.27264130 Ry
     ewald contribution        =     571.34850917 Ry
     one-center paw contrib.   =    -111.00795953 Ry

     convergence has been achieved in   5 iterations

     negative rho (up, down):  5.122E-05 0.000E+00

     Forces acting on atoms (cartesian axes, Ry/au):

     atom    1 type  1   force =    -0.00000000    0.00784474   -0.00689658
     atom    2 type  1   force =    -0.00679622    0.00392380   -0.00689704
     atom    3 type  1   force =     0.00679374   -0.00392237   -0.00689658
     atom    4 type  1   force =     0.00000000   -0.00784760   -0.00689704
     atom    5 type  1   force =    -0.00098334   -0.00056773    0.00162770
     atom    6 type  1   force =     0.00098453    0.00056842    0.00162545
     atom    7 type  1   force =     0.00773921   -0.00446824    0.00130817
     atom    8 type  1   force =    -0.00000000   -0.00113684    0.00162545
     atom    9 type  1   force =    -0.00679374   -0.00392237   -0.00689658
     atom   10 type  1   force =     0.00773881    0.00446801    0.00130943
     atom   11 type  1   force =     0.00000000    0.00893647    0.00130817
     atom   12 type  1   force =    -0.00098453    0.00056842    0.00162545
     atom   13 type  1   force =    -0.00773921   -0.00446824    0.00130817
     atom   14 type  1   force =     0.00679622    0.00392380   -0.00689704
     atom   15 type  1   force =     0.00000000    0.00113546    0.00162770
     atom   16 type  1   force =    -0.00773881    0.00446801    0.00130943
     atom   17 type  1   force =     0.00098334   -0.00056773    0.00162770
     atom   18 type  1   force =     0.00000000   -0.00893601    0.00130943
     atom   19 type  2   force =     0.00000000    0.00000000    0.02376862
     The non-local contrib.  to forces
     atom    1 type  1   force =     0.00000000    0.08868699    0.08427473
     atom    2 type  1   force =    -0.07682431    0.04435453    0.08427371
     atom    3 type  1   force =     0.07680519   -0.04434349    0.08427473
     atom    4 type  1   force =     0.00000000   -0.08870907    0.08427371
     atom    5 type  1   force =    -0.00346333   -0.00199955   -0.00031737
     atom    6 type  1   force =     0.00345369    0.00199399   -0.00031847
     atom    7 type  1   force =    -0.02069608    0.01194889    0.00668469
     atom    8 type  1   force =    -0.00000000   -0.00398798   -0.00031847
     atom    9 type  1   force =    -0.07680519   -0.04434349    0.08427473
     atom   10 type  1   force =    -0.02069468   -0.01194808    0.00668556
     atom   11 type  1   force =     0.00000000   -0.02389778    0.00668469
     atom   12 type  1   force =    -0.00345369    0.00199399   -0.00031847
     atom   13 type  1   force =     0.02069608    0.01194889    0.00668469
     atom   14 type  1   force =     0.07682431    0.04435453    0.08427371
     atom   15 type  1   force =     0.00000000    0.00399911   -0.00031737
     atom   16 type  1   force =     0.02069468   -0.01194808    0.00668556
     atom   17 type  1   force =     0.00346333   -0.00199955   -0.00031737
     atom   18 type  1   force =     0.00000000    0.02389616    0.00668556
     atom   19 type  2   force =     0.00000000   -0.00000000   -0.00803232
     The ionic contribution  to forces
     atom    1 type  1   force =     0.00000000   -0.27127819   -0.49340153
     atom    2 type  1   force =     0.23492823   -0.13563588   -0.49340032
     atom    3 type  1   force =    -0.23493380    0.13563910   -0.49340153
     atom    4 type  1   force =     0.00000000    0.27127176   -0.49340032
     atom    5 type  1   force =    -0.03028822   -0.01748691   -0.08659484
     atom    6 type  1   force =     0.03033594    0.01751446   -0.08658207
     atom    7 type  1   force =     0.15896390   -0.09177785   -0.08938253
     atom    8 type  1   force =     0.00000000   -0.03502892   -0.08658207
     atom    9 type  1   force =     0.23493380    0.13563910   -0.49340153
     atom   10 type  1   force =     0.15891433    0.09174923   -0.08938857
     atom   11 type  1   force =     0.00000000    0.18355570   -0.08938253
     atom   12 type  1   force =    -0.03033594    0.01751446   -0.08658207
     atom   13 type  1   force =    -0.15896390   -0.09177785   -0.08938253
     atom   14 type  1   force =    -0.23492823   -0.13563588   -0.49340032
     atom   15 type  1   force =    -0.00000000    0.03497382   -0.08659484
     atom   16 type  1   force =    -0.15891433    0.09174923   -0.08938857
     atom   17 type  1   force =     0.03028822   -0.01748691   -0.08659484
     atom   18 type  1   force =     0.00000000   -0.18349846   -0.08938857
     atom   19 type  2   force =     0.00000000   -0.00000000    4.01624958
     The local contribution  to forces
     atom    1 type  1   force =     0.00000000    0.19237800    0.40308811
     atom    2 type  1   force =    -0.16661372    0.09619447    0.40308778
     atom    3 type  1   force =     0.16660423   -0.09618900    0.40308811
     atom    4 type  1   force =     0.00000000   -0.19238895    0.40308778
     atom    5 type  1   force =     0.03273268    0.01889822    0.08809965
     atom    6 type  1   force =    -0.03285518   -0.01896895    0.08808615
     atom    7 type  1   force =    -0.13103339    0.07565216    0.08373205
     atom    8 type  1   force =     0.00000000    0.03793790    0.08808615
     atom    9 type  1   force =    -0.16660423   -0.09618900    0.40308811
     atom   10 type  1   force =    -0.13093495   -0.07559533    0.08373898
     atom   11 type  1   force =     0.00000000   -0.15130433    0.08373205
     atom   12 type  1   force =     0.03285518   -0.01896895    0.08808615
     atom   13 type  1   force =     0.13103339    0.07565216    0.08373205
     atom   14 type  1   force =     0.16661372    0.09619447    0.40308778
     atom   15 type  1   force =     0.00000000   -0.03779644    0.08809965
     atom   16 type  1   force =     0.13093495   -0.07559533    0.08373898
     atom   17 type  1   force =    -0.03273268    0.01889822    0.08809965
     atom   18 type  1   force =     0.00000000    0.15119066    0.08373898
     atom   19 type  2   force =     0.00000000    0.00000000   -3.98457105
     The core correction contribution to forces
     atom    1 type  1   force =     0.00000000   -0.00168382   -0.00125646
     atom    2 type  1   force =     0.00145497   -0.00084003   -0.00125688
     atom    3 type  1   force =    -0.00145823    0.00084191   -0.00125646
     atom    4 type  1   force =     0.00000000    0.00168006   -0.00125688
     atom    5 type  1   force =     0.00014238    0.00008220    0.00003032
     atom    6 type  1   force =    -0.00014199   -0.00008198    0.00003021
     atom    7 type  1   force =     0.00010244   -0.00005914   -0.00012871
     atom    8 type  1   force =     0.00000000    0.00016395    0.00003021
     atom    9 type  1   force =     0.00145823    0.00084191   -0.00125646
     atom   10 type  1   force =     0.00010202    0.00005890   -0.00012902
     atom   11 type  1   force =     0.00000000    0.00011828   -0.00012871
     atom   12 type  1   force =     0.00014199   -0.00008198    0.00003021
     atom   13 type  1   force =    -0.00010244   -0.00005914   -0.00012871
     atom   14 type  1   force =    -0.00145497   -0.00084003   -0.00125688
     atom   15 type  1   force =     0.00000000   -0.00016441    0.00003032
     atom   16 type  1   force =    -0.00010202    0.00005890   -0.00012902
     atom   17 type  1   force =    -0.00014238    0.00008220    0.00003032
     atom   18 type  1   force =     0.00000000   -0.00011780   -0.00012902
     atom   19 type  2   force =     0.00000000    0.00000000    0.00000000
     The Hubbard contrib.    to forces
     atom    1 type  1   force =     0.00000000    0.00000000    0.00000000
     atom    2 type  1   force =     0.00000000    0.00000000    0.00000000
     atom    3 type  1   force =     0.00000000    0.00000000    0.00000000
     atom    4 type  1   force =     0.00000000    0.00000000    0.00000000
     atom    5 type  1   force =     0.00000000    0.00000000    0.00000000
     atom    6 type  1   force =     0.00000000    0.00000000    0.00000000
     atom    7 type  1   force =     0.00000000    0.00000000    0.00000000
     atom    8 type  1   force =     0.00000000    0.00000000    0.00000000
     atom    9 type  1   force =     0.00000000    0.00000000    0.00000000
     atom   10 type  1   force =     0.00000000    0.00000000    0.00000000
     atom   11 type  1   force =     0.00000000    0.00000000    0.00000000
     atom   12 type  1   force =     0.00000000    0.00000000    0.00000000
     atom   13 type  1   force =     0.00000000    0.00000000    0.00000000
     atom   14 type  1   force =     0.00000000    0.00000000    0.00000000
     atom   15 type  1   force =     0.00000000    0.00000000    0.00000000
     atom   16 type  1   force =     0.00000000    0.00000000    0.00000000
     atom   17 type  1   force =     0.00000000    0.00000000    0.00000000
     atom   18 type  1   force =     0.00000000    0.00000000    0.00000000
     atom   19 type  2   force =     0.00000000    0.00000000    0.00000000
     The SCF correction term to forces
     atom    1 type  1   force =     0.00000000   -0.00025823    0.00041292
     atom    2 type  1   force =     0.00025860   -0.00014930    0.00041302
     atom    3 type  1   force =    -0.00022364    0.00012912    0.00041292
     atom    4 type  1   force =    -0.00000000    0.00029860    0.00041302
     atom    5 type  1   force =    -0.00010686   -0.00006169    0.00042429
     atom    6 type  1   force =     0.00019207    0.00011089    0.00042398
     atom    7 type  1   force =     0.00040236   -0.00023230    0.00041702
     atom    8 type  1   force =    -0.00000000   -0.00022179    0.00042398
     atom    9 type  1   force =     0.00022364    0.00012912    0.00041292
     atom   10 type  1   force =     0.00035210    0.00020328    0.00041682
     atom   11 type  1   force =    -0.00000000    0.00046460    0.00041702
     atom   12 type  1   force =    -0.00019207    0.00011089    0.00042398
     atom   13 type  1   force =    -0.00040236   -0.00023230    0.00041702
     atom   14 type  1   force =    -0.00025860   -0.00014930    0.00041302
     atom   15 type  1   force =     0.00000000    0.00012339    0.00042429
     atom   16 type  1   force =    -0.00035210    0.00020328    0.00041682
     atom   17 type  1   force =     0.00010686   -0.00006169    0.00042429
     atom   18 type  1   force =    -0.00000000   -0.00040657    0.00041682
     atom   19 type  2   force =     0.00000000    0.00000000    0.00013676

     Total force =     0.041626     Total SCF correction =     0.002229


     Computing stress (Cartesian axis) and pressure


     negative rho (up, down):  5.122E-05 0.000E+00
          total   stress  (Ry/bohr**3)                   (kbar)     P=        9.57
   0.00009363   0.00000000   0.00000000           13.77        0.00        0.00
   0.00000000   0.00009363  -0.00000000            0.00       13.77       -0.00
   0.00000000  -0.00000000   0.00000783            0.00       -0.00        1.15

     Energy error            =      2.0E-03 Ry
     Gradient error          =      2.4E-02 Ry/Bohr

     number of scf cycles    =   2
     number of bfgs steps    =   1

     energy             old  =    -332.8743957539 Ry
     energy             new  =    -332.8763788969 Ry

     CASE: energy            _new < energy            _old

     new trust radius        =       0.0388102664 bohr
     new conv_thr            =       0.0000001983 Ry


ATOMIC_POSITIONS (angstrom)
C             0.0000000000       -0.0118846996        7.4846059502
C             1.2402887823        0.7042005999        7.4846059462
C            -1.2402924518        2.1363648431        7.4846059502
C             0.0000000000        2.8524437869        7.4846059462
C            -2.4586149451        4.2616446484        7.4968598980
C            -1.2313886794        4.9701840633        7.4968598259
C             2.4660594525       -0.0034984265        7.4973452695
C             3.6900000000        0.7117443399        7.4968598259
C             1.2402924518        2.1363648431        7.4846059502
C             2.4660632479        2.8440639422        7.4973450709
C             0.0000000000        4.2678418396        7.4973452695
C             1.2313886794        4.9701840633        7.4968598259
C             4.9139405475       -0.0034984265        7.4973452695
C             6.1397112177        0.7042005999        7.4846059462
C             3.6900000000        2.1288231697        7.4968598980
C             4.9139367521        2.8440639422        7.4973450709
C             2.4586149451        4.2616446484        7.4968598980
C             3.6900000000        4.9639845821        7.4973450709
H             0.0000000000        1.4202816622        8.6301423213



     Writing config-only to output data dir ./graphene_h_over_c.save/
     NEW-OLD atomic charge density approx. for the potential

     negative rho (up, down):  5.091E-05 0.000E+00

     total cpu time spent up to now is       79.5 secs

     Self-consistent Calculation

     iteration #  1     ecut=    60.00 Ry     beta= 0.70
     Davidson diagonalization with overlap
     ethr =  1.00E-06,  avg # of iterations =  5.7

     negative rho (up, down):  5.070E-05 0.000E+00

     total cpu time spent up to now is       83.4 secs

     total energy              =    -332.87763699 Ry
     estimated scf accuracy    <       0.00027608 Ry

     iteration #  2     ecut=    60.00 Ry     beta= 0.70
     Davidson diagonalization with overlap
     ethr =  3.78E-07,  avg # of iterations =  2.6

     negative rho (up, down):  5.116E-05 0.000E+00

     total cpu time spent up to now is       86.2 secs

     total energy              =    -332.87768509 Ry
     estimated scf accuracy    <       0.00007788 Ry

     iteration #  3     ecut=    60.00 Ry     beta= 0.70
     Davidson diagonalization with overlap
     ethr =  1.07E-07,  avg # of iterations =  2.9

     negative rho (up, down):  5.085E-05 0.000E+00

     total cpu time spent up to now is       88.9 secs

     total energy              =    -332.87770492 Ry
     estimated scf accuracy    <       0.00001534 Ry

     iteration #  4     ecut=    60.00 Ry     beta= 0.70
     Davidson diagonalization with overlap
     ethr =  2.10E-08,  avg # of iterations =  2.9

     negative rho (up, down):  5.068E-05 0.000E+00

     total cpu time spent up to now is       91.6 secs

     total energy              =    -332.87770811 Ry
     estimated scf accuracy    <       0.00000205 Ry

     iteration #  5     ecut=    60.00 Ry     beta= 0.70
     Davidson diagonalization with overlap
     ethr =  2.81E-09,  avg # of iterations =  3.6

     negative rho (up, down):  5.065E-05 0.000E+00

     total cpu time spent up to now is       94.2 secs

     total energy              =    -332.87770860 Ry
     estimated scf accuracy    <       0.00000092 Ry

     iteration #  6     ecut=    60.00 Ry     beta= 0.70
     Davidson diagonalization with overlap
     ethr =  1.26E-09,  avg # of iterations =  2.0

     negative rho (up, down):  5.063E-05 0.000E+00

     total cpu time spent up to now is       96.6 secs

     End of self-consistent calculation

          k = 0.0000 0.0000 0.0000 ( 37425 PWs)   bands (ev):

   -21.3438 -19.0048 -18.7403 -18.7403 -18.5990 -18.5990 -18.5771 -14.3248
   -14.3248 -14.2992 -14.2992 -12.5584 -12.2844 -11.4082 -11.3889 -11.3492
   -11.3492 -11.3267 -11.3267  -9.6380  -7.5334  -7.5334  -7.4998  -7.4854
    -7.4854  -7.3834  -7.1955  -6.4737  -6.4737  -6.2421  -6.2421  -6.2322
    -4.7106  -4.7106  -1.7082  -1.7082  -1.6907  -1.6907  -0.9816   1.6990
     2.3437   2.7676   3.1342   3.1653

          k = 0.0000 0.0000 0.1640 ( 37504 PWs)   bands (ev):

   -21.3438 -19.0048 -18.7403 -18.7403 -18.5990 -18.5990 -18.5771 -14.3248
   -14.3248 -14.2992 -14.2992 -12.5584 -12.2844 -11.4082 -11.3889 -11.3492
   -11.3492 -11.3267 -11.3267  -9.6381  -7.5334  -7.5334  -7.4998  -7.4853
    -7.4853  -7.3834  -7.1956  -6.4738  -6.4738  -6.2422  -6.2422  -6.2322
    -4.7106  -4.7106  -1.7082  -1.7082  -1.6907  -1.6907  -0.9816   1.7445
     2.1428   3.1025   3.1342   3.1653

          k = 0.0000 0.3849 0.0000 ( 37488 PWs)   bands (ev):

   -21.0621 -20.1607 -19.3066 -19.2418 -17.6352 -17.5530 -16.7676 -16.0258
   -15.9738 -14.1377 -13.5524 -13.5124 -12.6779 -12.6339 -11.0056 -10.8555
    -9.8984  -9.8455  -9.3757  -8.7695  -8.7067  -8.4107  -8.1857  -8.0608
    -7.8466  -7.8228  -7.1752  -6.9976  -6.4552  -5.8322  -5.3593  -5.2892
    -5.1480  -4.5021  -3.6156  -3.5095  -1.2518   0.0233   0.0862   0.7913
     1.6498   1.7117   2.2570   2.7668

          k = 0.0000 0.3849 0.1640 ( 37470 PWs)   bands (ev):

   -21.0621 -20.1607 -19.3066 -19.2418 -17.6352 -17.5530 -16.7676 -16.0258
   -15.9738 -14.1377 -13.5524 -13.5124 -12.6779 -12.6339 -11.0056 -10.8555
    -9.8984  -9.8455  -9.3757  -8.7695  -8.7067  -8.4107  -8.1857  -8.0608
    -7.8466  -7.8228  -7.1751  -6.9976  -6.4552  -5.8322  -5.3593  -5.2893
    -5.1480  -4.5021  -3.6156  -3.5095  -1.2517   0.0233   0.0862   0.7915
     1.6498   1.7175   2.2951   2.5701

          k = 0.3333 0.5774 0.0000 ( 37407 PWs)   bands (ev):

   -20.6793 -20.3353 -20.3353 -17.9107 -17.8492 -17.8492 -15.8406 -15.8406
   -15.7434 -14.9780 -14.7771 -14.7771 -11.4024 -11.4024 -11.3489 -10.0916
    -9.8633  -9.8633  -9.2059  -9.0279  -9.0279  -8.8820  -8.2566  -8.2566
    -7.4450  -7.4450  -7.3056  -6.4643  -6.4643  -6.4269  -5.6498  -5.4340
    -5.4340  -3.8587  -3.8587  -3.6980  -1.7151  -0.1247  -0.1246   0.8868
     2.2517   2.2517   2.3504   2.7086

          k = 0.3333 0.5774 0.1640 ( 37485 PWs)   bands (ev):

   -20.6793 -20.3353 -20.3353 -17.9107 -17.8492 -17.8492 -15.8406 -15.8406
   -15.7434 -14.9780 -14.7771 -14.7771 -11.4025 -11.4024 -11.3490 -10.0917
    -9.8633  -9.8633  -9.2060  -9.0279  -9.0279  -8.8820  -8.2566  -8.2566
    -7.4450  -7.4450  -7.3056  -6.4643  -6.4643  -6.4269  -5.6498  -5.4340
    -5.4340  -3.8587  -3.8587  -3.6980  -1.7151  -0.1247  -0.1246   0.8871
     2.2517   2.2517   2.3504   2.7382

          k = 0.0000-0.3849 0.1640 ( 37470 PWs)   bands (ev):

   -21.0621 -20.1607 -19.3066 -19.2418 -17.6352 -17.5530 -16.7676 -16.0258
   -15.9738 -14.1377 -13.5524 -13.5124 -12.6779 -12.6339 -11.0056 -10.8555
    -9.8984  -9.8455  -9.3757  -8.7695  -8.7067  -8.4107  -8.1857  -8.0608
    -7.8466  -7.8228  -7.1751  -6.9976  -6.4552  -5.8322  -5.3593  -5.2893
    -5.1480  -4.5021  -3.6156  -3.5095  -1.2517   0.0233   0.0862   0.7915
     1.6498   1.7175   2.2951   2.5701

     the Fermi energy is    -1.4276 ev

!    total energy              =    -332.87770877 Ry
     total all-electron energy =     -1372.631454 Ry
     estimated scf accuracy    <       0.00000001 Ry
     smearing contrib. (-TS)   =       0.00119993 Ry
     internal energy E=F+TS    =    -332.87890870 Ry

     The total energy is F=E-TS. E is the sum of the following terms:
     one-electron contribution =   -1447.39640896 Ry
     hartree contribution      =     738.64428999 Ry
     xc contribution           =     -84.26493887 Ry
     ewald contribution        =     571.14635901 Ry
     one-center paw contrib.   =    -111.00820987 Ry

     convergence has been achieved in   6 iterations

     negative rho (up, down):  5.063E-05 0.000E+00

     Forces acting on atoms (cartesian axes, Ry/au):

     atom    1 type  1   force =     0.00000000    0.00534191   -0.00533959
     atom    2 type  1   force =    -0.00462399    0.00266966   -0.00533983
     atom    3 type  1   force =     0.00462623   -0.00267095   -0.00533959
     atom    4 type  1   force =    -0.00000000   -0.00533932   -0.00533983
     atom    5 type  1   force =    -0.00267306   -0.00154329    0.00185806
     atom    6 type  1   force =     0.00267943    0.00154697    0.00185804
     atom    7 type  1   force =    -0.00486763    0.00281032    0.00005766
     atom    8 type  1   force =     0.00000000   -0.00309394    0.00185804
     atom    9 type  1   force =    -0.00462623   -0.00267095   -0.00533959
     atom   10 type  1   force =    -0.00487654   -0.00281547    0.00005771
     atom   11 type  1   force =     0.00000000   -0.00562065    0.00005766
     atom   12 type  1   force =    -0.00267943    0.00154697    0.00185804
     atom   13 type  1   force =     0.00486763    0.00281032    0.00005766
     atom   14 type  1   force =     0.00462399    0.00266966   -0.00533983
     atom   15 type  1   force =     0.00000000    0.00308658    0.00185806
     atom   16 type  1   force =     0.00487654   -0.00281547    0.00005771
     atom   17 type  1   force =     0.00267306   -0.00154329    0.00185806
     atom   18 type  1   force =     0.00000000    0.00563094    0.00005771
     atom   19 type  2   force =     0.00000000    0.00000000    0.02054383
     The non-local contrib.  to forces
     atom    1 type  1   force =    -0.00000000    0.08315745    0.08127672
     atom    2 type  1   force =    -0.07201131    0.04157575    0.08127693
     atom    3 type  1   force =     0.07201646   -0.04157873    0.08127672
     atom    4 type  1   force =     0.00000000   -0.08315150    0.08127693
     atom    5 type  1   force =    -0.00228841   -0.00132121    0.00088533
     atom    6 type  1   force =     0.00229547    0.00132529    0.00088552
     atom    7 type  1   force =    -0.03286572    0.01897503    0.00420912
     atom    8 type  1   force =     0.00000000   -0.00265058    0.00088552
     atom    9 type  1   force =    -0.07201646   -0.04157873    0.08127672
     atom   10 type  1   force =    -0.03287452   -0.01898012    0.00420920
     atom   11 type  1   force =    -0.00000000   -0.03795006    0.00420912
     atom   12 type  1   force =    -0.00229547    0.00132529    0.00088552
     atom   13 type  1   force =     0.03286572    0.01897503    0.00420912
     atom   14 type  1   force =     0.07201131    0.04157575    0.08127693
     atom   15 type  1   force =     0.00000000    0.00264242    0.00088533
     atom   16 type  1   force =     0.03287452   -0.01898012    0.00420920
     atom   17 type  1   force =     0.00228841   -0.00132121    0.00088533
     atom   18 type  1   force =     0.00000000    0.03796023    0.00420920
     atom   19 type  2   force =     0.00000000    0.00000000   -0.00776613
     The ionic contribution  to forces
     atom    1 type  1   force =     0.00000000   -0.26201675   -0.55854216
     atom    2 type  1   force =     0.22691136   -0.13100734   -0.55854475
     atom    3 type  1   force =    -0.22691317    0.13100838   -0.55854216
     atom    4 type  1   force =     0.00000000    0.26201467   -0.55854475
     atom    5 type  1   force =     0.00668527    0.00385974   -0.06425363
     atom    6 type  1   force =    -0.00661818   -0.00382101   -0.06425616
     atom    7 type  1   force =     0.09712934   -0.05607765   -0.04743339
     atom    8 type  1   force =     0.00000000    0.00764202   -0.06425616
     atom    9 type  1   force =     0.22691317    0.13100838   -0.55854216
     atom   10 type  1   force =     0.09707250    0.05604483   -0.04743705
     atom   11 type  1   force =     0.00000000    0.11215530   -0.04743339
     atom   12 type  1   force =     0.00661818   -0.00382101   -0.06425616
     atom   13 type  1   force =    -0.09712934   -0.05607765   -0.04743339
     atom   14 type  1   force =    -0.22691136   -0.13100734   -0.55854475
     atom   15 type  1   force =     0.00000000   -0.00771948   -0.06425363
     atom   16 type  1   force =    -0.09707250    0.05604483   -0.04743705
     atom   17 type  1   force =    -0.00668527    0.00385974   -0.06425363
     atom   18 type  1   force =    -0.00000000   -0.11208966   -0.04743705
     atom   19 type  2   force =     0.00000000   -0.00000000    4.02140147
     The local contribution  to forces
     atom    1 type  1   force =     0.00000000    0.18575463    0.47314014
     atom    2 type  1   force =    -0.16086089    0.09287308    0.47314278
     atom    3 type  1   force =     0.16086823   -0.09287732    0.47314014
     atom    4 type  1   force =     0.00000000   -0.18574615    0.47314278
     atom    5 type  1   force =    -0.00711488   -0.00410778    0.06530253
     atom    6 type  1   force =     0.00705519    0.00407331    0.06530503
     atom    7 type  1   force =    -0.06957750    0.04017059    0.04346859
     atom    8 type  1   force =     0.00000000   -0.00814663    0.06530503
     atom    9 type  1   force =    -0.16086823   -0.09287732    0.47314014
     atom   10 type  1   force =    -0.06952209   -0.04013860    0.04347255
     atom   11 type  1   force =     0.00000000   -0.08034117    0.04346859
     atom   12 type  1   force =    -0.00705519    0.00407331    0.06530503
     atom   13 type  1   force =     0.06957750    0.04017059    0.04346859
     atom   14 type  1   force =     0.16086089    0.09287308    0.47314278
     atom   15 type  1   force =     0.00000000    0.00821555    0.06530253
     atom   16 type  1   force =     0.06952209   -0.04013860    0.04347255
     atom   17 type  1   force =     0.00711488   -0.00410778    0.06530253
     atom   18 type  1   force =     0.00000000    0.08027719    0.04347255
     atom   19 type  2   force =     0.00000000    0.00000000   -3.99309450
     The core correction contribution to forces
     atom    1 type  1   force =     0.00000000   -0.00152814   -0.00117722
     atom    2 type  1   force =     0.00131924   -0.00076166   -0.00117769
     atom    3 type  1   force =    -0.00132341    0.00076407   -0.00117722
     atom    4 type  1   force =     0.00000000    0.00152332   -0.00117769
     atom    5 type  1   force =     0.00002041    0.00001178    0.00000605
     atom    6 type  1   force =    -0.00002007   -0.00001159    0.00000586
     atom    7 type  1   force =     0.00042428   -0.00024496   -0.00011700
     atom    8 type  1   force =     0.00000000    0.00002318    0.00000586
     atom    9 type  1   force =     0.00132341    0.00076407   -0.00117722
     atom   10 type  1   force =     0.00042145    0.00024333   -0.00011739
     atom   11 type  1   force =     0.00000000    0.00048992   -0.00011700
     atom   12 type  1   force =     0.00002007   -0.00001159    0.00000586
     atom   13 type  1   force =    -0.00042428   -0.00024496   -0.00011700
     atom   14 type  1   force =    -0.00131924   -0.00076166   -0.00117769
     atom   15 type  1   force =     0.00000000   -0.00002357    0.00000605
     atom   16 type  1   force =    -0.00042145    0.00024333   -0.00011739
     atom   17 type  1   force =    -0.00002041    0.00001178    0.00000605
     atom   18 type  1   force =     0.00000000   -0.00048665   -0.00011739
     atom   19 type  2   force =     0.00000000    0.00000000    0.00000000
     The Hubbard contrib.    to forces
     atom    1 type  1   force =     0.00000000    0.00000000    0.00000000
     atom    2 type  1   force =     0.00000000    0.00000000    0.00000000
     atom    3 type  1   force =     0.00000000    0.00000000    0.00000000
     atom    4 type  1   force =     0.00000000    0.00000000    0.00000000
     atom    5 type  1   force =     0.00000000    0.00000000    0.00000000
     atom    6 type  1   force =     0.00000000    0.00000000    0.00000000
     atom    7 type  1   force =     0.00000000    0.00000000    0.00000000
     atom    8 type  1   force =     0.00000000    0.00000000    0.00000000
     atom    9 type  1   force =     0.00000000    0.00000000    0.00000000
     atom   10 type  1   force =     0.00000000    0.00000000    0.00000000
     atom   11 type  1   force =     0.00000000    0.00000000    0.00000000
     atom   12 type  1   force =     0.00000000    0.00000000    0.00000000
     atom   13 type  1   force =     0.00000000    0.00000000    0.00000000
     atom   14 type  1   force =     0.00000000    0.00000000    0.00000000
     atom   15 type  1   force =     0.00000000    0.00000000    0.00000000
     atom   16 type  1   force =     0.00000000    0.00000000    0.00000000
     atom   17 type  1   force =     0.00000000    0.00000000    0.00000000
     atom   18 type  1   force =     0.00000000    0.00000000    0.00000000
     atom   19 type  2   force =     0.00000000    0.00000000    0.00000000
     The SCF correction term to forces
     atom    1 type  1   force =     0.00000000   -0.00002528   -0.00004045
     atom    2 type  1   force =     0.00001761   -0.00001017   -0.00004048
     atom    3 type  1   force =    -0.00002189    0.00001264   -0.00004045
     atom    4 type  1   force =    -0.00000000    0.00002033   -0.00004048
     atom    5 type  1   force =     0.00002455    0.00001418   -0.00008560
     atom    6 type  1   force =    -0.00003297   -0.00001904   -0.00008559
     atom    7 type  1   force =     0.00002198   -0.00001269   -0.00007304
     atom    8 type  1   force =     0.00000000    0.00003807   -0.00008559
     atom    9 type  1   force =     0.00002189    0.00001264   -0.00004045
     atom   10 type  1   force =     0.00002613    0.00001508   -0.00007298
     atom   11 type  1   force =     0.00000000    0.00002538   -0.00007304
     atom   12 type  1   force =     0.00003297   -0.00001904   -0.00008559
     atom   13 type  1   force =    -0.00002198   -0.00001269   -0.00007304
     atom   14 type  1   force =    -0.00001761   -0.00001017   -0.00004048
     atom   15 type  1   force =     0.00000000   -0.00002835   -0.00008560
     atom   16 type  1   force =    -0.00002613    0.00001508   -0.00007298
     atom   17 type  1   force =    -0.00002455    0.00001418   -0.00008560
     atom   18 type  1   force =     0.00000000   -0.00003017   -0.00007298
     atom   19 type  2   force =    -0.00000000   -0.00000000   -0.00000040

     Total force =     0.032128     Total SCF correction =     0.000317


     Computing stress (Cartesian axis) and pressure


     negative rho (up, down):  5.063E-05 0.000E+00
          total   stress  (Ry/bohr**3)                   (kbar)     P=        9.40
   0.00009264  -0.00000000   0.00000000           13.63       -0.00        0.00
  -0.00000000   0.00009264  -0.00000000           -0.00       13.63       -0.00
   0.00000000  -0.00000000   0.00000651            0.00       -0.00        0.96

     Energy error            =      1.3E-03 Ry
     Gradient error          =      2.1E-02 Ry/Bohr

     number of scf cycles    =   3
     number of bfgs steps    =   2

     energy             old  =    -332.8763788969 Ry
     energy             new  =    -332.8777087687 Ry

     CASE: energy            _new < energy            _old

     new trust radius        =       0.0853825861 bohr
     new conv_thr            =       0.0000001330 Ry


ATOMIC_POSITIONS (angstrom)
C             0.0000000000       -0.0117955785        7.4720029225
C             1.2402107234        0.7042456672        7.4720025737
C            -1.2402152707        2.1363202826        7.4720029225
C             0.0000000000        2.8523536522        7.4720025737
C            -2.4604365408        4.2605929497        7.5000891405
C            -1.2295632620        4.9712379685        7.5000883518
C             2.4675511470       -0.0043596568        7.4991890189
C             3.6900000000        0.7096365295        7.5000883518
C             1.2402152707        2.1363202826        7.4720029225
C             2.4675492290        2.8449218738        7.4991891137
C             0.0000000000        4.2695643001        7.4991890189
C             1.2295632620        4.9712379685        7.5000883518
C             4.9124488530       -0.0043596568        7.4991890189
C             6.1397892766        0.7042456672        7.4720025737
C             3.6900000000        2.1309265672        7.5000891405
C             4.9124507710        2.8449218738        7.4991891137
C             2.4604365408        4.2605929497        7.5000891405
C             3.6900000000        4.9622687189        7.4991891137
H             0.0000000000        1.4202816622        8.6753248401



     Writing config-only to output data dir ./graphene_h_over_c.save/
     NEW-OLD atomic charge density approx. for the potential

     negative rho (up, down):  5.038E-05 0.000E+00

     total cpu time spent up to now is      111.9 secs

     Self-consistent Calculation

     iteration #  1     ecut=    60.00 Ry     beta= 0.70
     Davidson diagonalization with overlap
     ethr =  1.00E-06,  avg # of iterations =  6.1

     negative rho (up, down):  4.845E-05 0.000E+00

     total cpu time spent up to now is      117.7 secs

     total energy              =    -332.87895395 Ry
     estimated scf accuracy    <       0.00188029 Ry

     iteration #  2     ecut=    60.00 Ry     beta= 0.70
     Davidson diagonalization with overlap
     ethr =  2.58E-06,  avg # of iterations =  3.6

     negative rho (up, down):  5.409E-05 0.000E+00

     total cpu time spent up to now is      122.4 secs

     total energy              =    -332.87883132 Ry
     estimated scf accuracy    <       0.00632539 Ry

     iteration #  3     ecut=    60.00 Ry     beta= 0.70
     Davidson diagonalization with overlap
     ethr =  2.58E-06,  avg # of iterations =  3.6

     negative rho (up, down):  5.012E-05 0.000E+00

     total cpu time spent up to now is      126.8 secs

     total energy              =    -332.87975991 Ry
     estimated scf accuracy    <       0.00006290 Ry

     iteration #  4     ecut=    60.00 Ry     beta= 0.70
     Davidson diagonalization with overlap
     ethr =  8.62E-08,  avg # of iterations =  2.9

     negative rho (up, down):  4.890E-05 0.000E+00

     total cpu time spent up to now is      131.2 secs

     total energy              =    -332.87977779 Ry
     estimated scf accuracy    <       0.00000540 Ry

     iteration #  5     ecut=    60.00 Ry     beta= 0.70
     Davidson diagonalization with overlap
     ethr =  7.40E-09,  avg # of iterations =  4.3

     negative rho (up, down):  4.875E-05 0.000E+00

     total cpu time spent up to now is      135.8 secs

     total energy              =    -332.87977893 Ry
     estimated scf accuracy    <       0.00000092 Ry

     iteration #  6     ecut=    60.00 Ry     beta= 0.70
     Davidson diagonalization with overlap
     ethr =  1.26E-09,  avg # of iterations =  2.6

     negative rho (up, down):  4.877E-05 0.000E+00

     total cpu time spent up to now is      140.3 secs

     End of self-consistent calculation

          k = 0.0000 0.0000 0.0000 ( 37425 PWs)   bands (ev):

   -21.3346 -18.9626 -18.7327 -18.7327 -18.6273 -18.6089 -18.6089 -14.3416
   -14.3416 -14.2962 -14.2962 -12.5196 -12.2895 -11.3924 -11.3783 -11.3662
   -11.3662 -11.3435 -11.3435  -9.6315  -7.5261  -7.5261  -7.5075  -7.4897
    -7.4897  -7.4320  -7.1894  -6.4674  -6.4674  -6.2740  -6.2557  -6.2557
    -4.7211  -4.7211  -1.7338  -1.7338  -1.6838  -1.6838  -1.1288   1.7130
     2.3403   2.7748   3.1337   3.1536

          k = 0.0000 0.0000 0.1640 ( 37504 PWs)   bands (ev):

   -21.3346 -18.9626 -18.7327 -18.7327 -18.6273 -18.6089 -18.6089 -14.3416
   -14.3416 -14.2962 -14.2962 -12.5196 -12.2895 -11.3924 -11.3783 -11.3662
   -11.3662 -11.3435 -11.3435  -9.6316  -7.5261  -7.5261  -7.5075  -7.4897
    -7.4897  -7.4320  -7.1894  -6.4674  -6.4674  -6.2740  -6.2557  -6.2557
    -4.7211  -4.7211  -1.7338  -1.7338  -1.6838  -1.6838  -1.1287   1.7598
     2.1418   3.1048   3.1337   3.1536

          k = 0.0000 0.3849 0.0000 ( 37488 PWs)   bands (ev):

   -21.0488 -20.1582 -19.3148 -19.2420 -17.6356 -17.5552 -16.7770 -16.0301
   -15.9770 -14.1389 -13.5450 -13.5238 -12.6732 -12.6491 -10.9927 -10.8609
    -9.8928  -9.8661  -9.3580  -8.7706  -8.7173  -8.4165  -8.1930  -8.0656
    -7.8453  -7.8452  -7.1961  -6.9999  -6.4649  -5.8425  -5.3678  -5.2994
    -5.1528  -4.5171  -3.6290  -3.5169  -1.3550   0.0103   0.0712   0.7456
     1.6342   1.6931   2.2367   2.7602

          k = 0.0000 0.3849 0.1640 ( 37470 PWs)   bands (ev):

   -21.0488 -20.1582 -19.3148 -19.2420 -17.6356 -17.5552 -16.7770 -16.0301
   -15.9770 -14.1389 -13.5450 -13.5238 -12.6732 -12.6491 -10.9927 -10.8609
    -9.8928  -9.8661  -9.3580  -8.7706  -8.7173  -8.4165  -8.1930  -8.0656
    -7.8453  -7.8452  -7.1961  -6.9999  -6.4649  -5.8425  -5.3678  -5.2995
    -5.1529  -4.5171  -3.6291  -3.5169  -1.3550   0.0103   0.0712   0.7458
     1.6342   1.6979   2.2756   2.5663

          k = 0.3333 0.5774 0.0000 ( 37407 PWs)   bands (ev):

   -20.6312 -20.3550 -20.3550 -17.8949 -17.8606 -17.8606 -15.8381 -15.8381
   -15.7713 -14.9439 -14.7923 -14.7923 -11.3992 -11.3992 -11.3760 -10.0515
    -9.8758  -9.8758  -9.1750  -9.0409  -9.0409  -8.8854  -8.2753  -8.2753
    -7.4440  -7.4439  -7.3346  -6.4747  -6.4746  -6.4303  -5.6589  -5.4429
    -5.4429  -3.8621  -3.8621  -3.7233  -1.7877  -0.1364  -0.1363   0.7646
     2.2494   2.2494   2.3247   2.7000

          k = 0.3333 0.5774 0.1640 ( 37485 PWs)   bands (ev):

   -20.6312 -20.3550 -20.3550 -17.8949 -17.8606 -17.8606 -15.8381 -15.8381
   -15.7713 -14.9439 -14.7923 -14.7923 -11.3992 -11.3992 -11.3760 -10.0515
    -9.8758  -9.8758  -9.1750  -9.0409  -9.0409  -8.8854  -8.2754  -8.2753
    -7.4440  -7.4439  -7.3346  -6.4747  -6.4746  -6.4303  -5.6589  -5.4429
    -5.4429  -3.8621  -3.8621  -3.7233  -1.7877  -0.1364  -0.1363   0.7648
     2.2494   2.2494   2.3247   2.7291

          k = 0.0000-0.3849 0.1640 ( 37470 PWs)   bands (ev):

   -21.0488 -20.1582 -19.3148 -19.2420 -17.6356 -17.5552 -16.7770 -16.0301
   -15.9770 -14.1389 -13.5450 -13.5238 -12.6732 -12.6491 -10.9927 -10.8609
    -9.8928  -9.8661  -9.3580  -8.7706  -8.7173  -8.4165  -8.1930  -8.0656
    -7.8453  -7.8452  -7.1961  -6.9999  -6.4649  -5.8425  -5.3678  -5.2995
    -5.1529  -4.5171  -3.6291  -3.5169  -1.3550   0.0103   0.0712   0.7458
     1.6342   1.6979   2.2756   2.5663

     the Fermi energy is    -1.5069 ev

!    total energy              =    -332.87977913 Ry
     total all-electron energy =     -1372.633525 Ry
     estimated scf accuracy    <       0.00000013 Ry
     smearing contrib. (-TS)   =      -0.00017242 Ry
     internal energy E=F+TS    =    -332.87960671 Ry

     The total energy is F=E-TS. E is the sum of the following terms:
     one-electron contribution =   -1446.51433233 Ry
     hartree contribution      =     738.17761399 Ry
     xc contribution           =     -84.24771248 Ry
     ewald contribution        =     570.71358790 Ry
     one-center paw contrib.   =    -111.00876379 Ry

     convergence has been achieved in   6 iterations

     negative rho (up, down):  4.877E-05 0.000E+00

     Forces acting on atoms (cartesian axes, Ry/au):

     atom    1 type  1   force =     0.00000000    0.00475781   -0.00276067
     atom    2 type  1   force =    -0.00410845    0.00237201   -0.00275958
     atom    3 type  1   force =     0.00412038   -0.00237890   -0.00276067
     atom    4 type  1   force =     0.00000000   -0.00474402   -0.00275958
     atom    5 type  1   force =     0.00346495    0.00200049    0.00174719
     atom    6 type  1   force =    -0.00346541   -0.00200075    0.00174713
     atom    7 type  1   force =    -0.00895090    0.00516780   -0.00198613
     atom    8 type  1   force =     0.00000000    0.00400151    0.00174713
     atom    9 type  1   force =    -0.00412038   -0.00237890   -0.00276067
     atom   10 type  1   force =    -0.00894323   -0.00516338   -0.00198629
     atom   11 type  1   force =     0.00000000   -0.01033561   -0.00198613
     atom   12 type  1   force =     0.00346541   -0.00200075    0.00174713
     atom   13 type  1   force =     0.00895090    0.00516780   -0.00198613
     atom   14 type  1   force =     0.00410845    0.00237201   -0.00275958
     atom   15 type  1   force =     0.00000000   -0.00400098    0.00174719
     atom   16 type  1   force =     0.00894323   -0.00516338   -0.00198629
     atom   17 type  1   force =    -0.00346495    0.00200049    0.00174719
     atom   18 type  1   force =    -0.00000000    0.01032676   -0.00198629
     atom   19 type  2   force =     0.00000000    0.00000000    0.01799504
     The non-local contrib.  to forces
     atom    1 type  1   force =     0.00000000    0.07297607    0.07228866
     atom    2 type  1   force =    -0.06318510    0.03647993    0.07229029
     atom    3 type  1   force =     0.06319913   -0.03648804    0.07228866
     atom    4 type  1   force =     0.00000000   -0.07295987    0.07229029
     atom    5 type  1   force =     0.00534383    0.00308526    0.00284233
     atom    6 type  1   force =    -0.00534511   -0.00308600    0.00284308
     atom    7 type  1   force =    -0.03499580    0.02020483    0.00042540
     atom    8 type  1   force =     0.00000000    0.00617201    0.00284308
     atom    9 type  1   force =    -0.06319913   -0.03648804    0.07228866
     atom   10 type  1   force =    -0.03498655   -0.02019950    0.00042654
     atom   11 type  1   force =     0.00000000   -0.04040966    0.00042540
     atom   12 type  1   force =     0.00534511   -0.00308600    0.00284308
     atom   13 type  1   force =     0.03499580    0.02020483    0.00042540
     atom   14 type  1   force =     0.06318510    0.03647993    0.07229029
     atom   15 type  1   force =    -0.00000000   -0.00617052    0.00284233
     atom   16 type  1   force =     0.03498655   -0.02019950    0.00042654
     atom   17 type  1   force =    -0.00534383    0.00308526    0.00284233
     atom   18 type  1   force =    -0.00000000    0.04039899    0.00042654
     atom   19 type  2   force =     0.00000000    0.00000000   -0.00703794
     The ionic contribution  to forces
     atom    1 type  1   force =     0.00000000   -0.24447832   -0.69267015
     atom    2 type  1   force =     0.21175570   -0.12225721   -0.69267872
     atom    3 type  1   force =    -0.21172444    0.12223916   -0.69267015
     atom    4 type  1   force =     0.00000000    0.24451442   -0.69267872
     atom    5 type  1   force =     0.05150526    0.02973658   -0.00216678
     atom    6 type  1   force =    -0.05151815   -0.02974402   -0.00218230
     atom    7 type  1   force =     0.05795878   -0.03346252    0.02178375
     atom    8 type  1   force =    -0.00000000    0.05948804   -0.00218230
     atom    9 type  1   force =     0.21172444    0.12223916   -0.69267015
     atom   10 type  1   force =     0.05801149    0.03349295    0.02178182
     atom   11 type  1   force =    -0.00000000    0.06692504    0.02178375
     atom   12 type  1   force =     0.05151815   -0.02974402   -0.00218230
     atom   13 type  1   force =    -0.05795878   -0.03346252    0.02178375
     atom   14 type  1   force =    -0.21175570   -0.12225721   -0.69267872
     atom   15 type  1   force =     0.00000000   -0.05947315   -0.00216678
     atom   16 type  1   force =    -0.05801149    0.03349295    0.02178182
     atom   17 type  1   force =    -0.05150526    0.02973658   -0.00216678
     atom   18 type  1   force =     0.00000000   -0.06698590    0.02178182
     atom   19 type  2   force =    -0.00000000   -0.00000000    4.03839711
     The local contribution  to forces
     atom    1 type  1   force =     0.00000000    0.17758128    0.61887978
     atom    2 type  1   force =    -0.15382019    0.08880813    0.61888802
     atom    3 type  1   force =     0.15378990   -0.08879064    0.61887978
     atom    4 type  1   force =     0.00000000   -0.17761625    0.61888802
     atom    5 type  1   force =    -0.05315704   -0.03069023    0.00140283
     atom    6 type  1   force =     0.05316755    0.03069630    0.00141799
     atom    7 type  1   force =    -0.03239293    0.01870207   -0.02382486
     atom    8 type  1   force =     0.00000000   -0.06139260    0.00141799
     atom    9 type  1   force =    -0.15378990   -0.08879064    0.61887978
     atom   10 type  1   force =    -0.03244111   -0.01872989   -0.02382342
     atom   11 type  1   force =     0.00000000   -0.03740414   -0.02382486
     atom   12 type  1   force =    -0.05316755    0.03069630    0.00141799
     atom   13 type  1   force =     0.03239293    0.01870207   -0.02382486
     atom   14 type  1   force =     0.15382019    0.08880813    0.61888802
     atom   15 type  1   force =     0.00000000    0.06138046    0.00140283
     atom   16 type  1   force =     0.03244111   -0.01872989   -0.02382342
     atom   17 type  1   force =     0.05315704   -0.03069023    0.00140283
     atom   18 type  1   force =    -0.00000000    0.03745977   -0.02382342
     atom   19 type  2   force =     0.00000000    0.00000000   -4.01331574
     The core correction contribution to forces
     atom    1 type  1   force =     0.00000000   -0.00135129   -0.00099762
     atom    2 type  1   force =     0.00116565   -0.00067299   -0.00099786
     atom    3 type  1   force =    -0.00117026    0.00067565   -0.00099762
     atom    4 type  1   force =     0.00000000    0.00134598   -0.00099786
     atom    5 type  1   force =    -0.00023620   -0.00013637   -0.00005328
     atom    6 type  1   force =     0.00023585    0.00013617   -0.00005383
     atom    7 type  1   force =     0.00054760   -0.00031616   -0.00010372
     atom    8 type  1   force =     0.00000000   -0.00027234   -0.00005383
     atom    9 type  1   force =     0.00117026    0.00067565   -0.00099762
     atom   10 type  1   force =     0.00054352    0.00031380   -0.00010443
     atom   11 type  1   force =     0.00000000    0.00063231   -0.00010372
     atom   12 type  1   force =    -0.00023585    0.00013617   -0.00005383
     atom   13 type  1   force =    -0.00054760   -0.00031616   -0.00010372
     atom   14 type  1   force =    -0.00116565   -0.00067299   -0.00099786
     atom   15 type  1   force =     0.00000000    0.00027274   -0.00005328
     atom   16 type  1   force =    -0.00054352    0.00031380   -0.00010443
     atom   17 type  1   force =     0.00023620   -0.00013637   -0.00005328
     atom   18 type  1   force =    -0.00000000   -0.00062760   -0.00010443
[...]

     iteration #  5     ecut=    60.00 Ry     beta= 0.70
     Davidson diagonalization with overlap
     ethr =  1.21E-10,  avg # of iterations =  2.9

     negative rho (up, down):  3.006E-05 0.000E+00

     total cpu time spent up to now is      823.6 secs

     total energy              =    -332.92336548 Ry
     estimated scf accuracy    <       0.00000002 Ry

     iteration #  6     ecut=    60.00 Ry     beta= 0.70
     Davidson diagonalization with overlap
     ethr =  2.72E-11,  avg # of iterations =  2.3

     negative rho (up, down):  3.006E-05 0.000E+00

     total cpu time spent up to now is      826.1 secs

     End of self-consistent calculation

          k = 0.0000 0.0000 0.0000 ( 37425 PWs)   bands (ev):

   -21.8264 -19.2423 -19.2423 -19.2418 -19.2295 -19.2295 -19.2212 -14.8794
   -14.8794 -14.8743 -14.8743 -12.8721 -12.8692 -11.9194 -11.9157 -11.9138
   -11.9138 -11.9128 -11.9128  -9.8715  -8.0716  -8.0706  -8.0706  -8.0667
    -8.0667  -8.0608  -6.8711  -6.8711  -6.8703  -6.8666  -6.8454  -6.8454
    -5.3055  -5.3055  -2.3517  -2.2128  -2.2128  -2.2086  -2.2086   1.4685
     2.5945   2.7336   2.7417   2.7607

          k = 0.0000 0.0000 0.1640 ( 37504 PWs)   bands (ev):

   -21.8264 -19.2423 -19.2423 -19.2418 -19.2295 -19.2295 -19.2212 -14.8794
   -14.8794 -14.8743 -14.8743 -12.8721 -12.8692 -11.9194 -11.9157 -11.9138
   -11.9138 -11.9128 -11.9128  -9.8715  -8.0716  -8.0705  -8.0705  -8.0667
    -8.0667  -8.0608  -6.8712  -6.8712  -6.8703  -6.8666  -6.8454  -6.8454
    -5.3056  -5.3056  -2.3517  -2.2128  -2.2128  -2.2086  -2.2086   1.4749
     2.4319   2.7336   2.7417   2.7458

          k = 0.0000 0.3849 0.0000 ( 37488 PWs)   bands (ev):

   -21.5342 -20.6633 -19.8041 -19.8010 -18.1233 -18.1206 -17.3233 -16.5436
   -16.5414 -14.6674 -14.0757 -14.0735 -13.2051 -13.2026 -11.4441 -11.4417
   -10.4382 -10.4350  -9.5221  -9.3045  -9.3038  -8.9771  -8.6343  -8.4920
    -8.4218  -8.4190  -7.4952  -7.4880  -7.0424  -6.4226  -5.8813  -5.6613
    -5.6555  -5.0120  -4.0239  -4.0208  -2.3442  -0.4894  -0.4881   0.0295
     1.1312   1.1315   1.8223   2.7328

          k = 0.0000 0.3849 0.1640 ( 37470 PWs)   bands (ev):

   -21.5342 -20.6633 -19.8041 -19.8010 -18.1233 -18.1206 -17.3233 -16.5436
   -16.5414 -14.6674 -14.0757 -14.0735 -13.2051 -13.2026 -11.4441 -11.4417
   -10.4382 -10.4350  -9.5221  -9.3045  -9.3038  -8.9771  -8.6342  -8.4919
    -8.4218  -8.4190  -7.4952  -7.4880  -7.0424  -6.4226  -5.8813  -5.6613
    -5.6555  -5.0120  -4.0239  -4.0208  -2.3442  -0.4894  -0.4881   0.0295
     1.1312   1.1315   1.8323   2.6347

          k = 0.3333 0.5774 0.0000 ( 37407 PWs)   bands (ev):

   -20.9584 -20.9583 -20.9411 -18.3998 -18.3975 -18.3973 -16.3760 -16.3681
   -16.3680 -15.3582 -15.3581 -15.3543 -11.9572 -11.9518 -11.9517 -10.4439
   -10.4438 -10.4378  -9.6056  -9.6055  -9.6041  -8.8360  -8.8360  -8.8226
    -7.9870  -7.9784  -7.9781  -7.0340  -7.0301  -7.0298  -5.9191  -5.8978
    -5.8977  -4.3258  -4.3126  -4.3125  -2.3537  -0.5943  -0.5941  -0.5796
     1.7468   1.7601   1.7603   2.4499

          k = 0.3333 0.5774 0.1640 ( 37485 PWs)   bands (ev):

   -20.9584 -20.9583 -20.9411 -18.3998 -18.3975 -18.3973 -16.3760 -16.3681
   -16.3680 -15.3582 -15.3581 -15.3543 -11.9573 -11.9518 -11.9518 -10.4439
   -10.4438 -10.4378  -9.6056  -9.6055  -9.6041  -8.8360  -8.8360  -8.8226
    -7.9871  -7.9784  -7.9782  -7.0340  -7.0301  -7.0298  -5.9191  -5.8978
    -5.8977  -4.3258  -4.3126  -4.3125  -2.3537  -0.5943  -0.5941  -0.5796
     1.7467   1.7600   1.7603   2.4653

          k = 0.0000-0.3849 0.1640 ( 37470 PWs)   bands (ev):

   -21.5342 -20.6633 -19.8041 -19.8010 -18.1233 -18.1206 -17.3233 -16.5436
   -16.5414 -14.6674 -14.0757 -14.0735 -13.2051 -13.2026 -11.4441 -11.4417
   -10.4382 -10.4350  -9.5221  -9.3045  -9.3038  -8.9771  -8.6342  -8.4919
    -8.4218  -8.4190  -7.4952  -7.4880  -7.0424  -6.4226  -5.8813  -5.6613
    -5.6555  -5.0120  -4.0239  -4.0208  -2.3442  -0.4894  -0.4881   0.0295
     1.1312   1.1315   1.8323   2.6347

     the Fermi energy is    -2.3067 ev

!    total energy              =    -332.92336549 Ry
     total all-electron energy =     -1372.677111 Ry
     estimated scf accuracy    <          1.7E-09 Ry
     smearing contrib. (-TS)   =      -0.00693388 Ry
     internal energy E=F+TS    =    -332.91643160 Ry

     The total energy is F=E-TS. E is the sum of the following terms:
     one-electron contribution =   -1420.96055046 Ry
     hartree contribution      =     723.88916561 Ry
     xc contribution           =     -84.02376404 Ry
     ewald contribution        =     559.19036892 Ry
     one-center paw contrib.   =    -111.01165164 Ry

     convergence has been achieved in   6 iterations

     negative rho (up, down):  3.006E-05 0.000E+00

     Forces acting on atoms (cartesian axes, Ry/au):

     atom    1 type  1   force =     0.00000000    0.00001554    0.00004843
     atom    2 type  1   force =    -0.00009800    0.00005658    0.00004834
     atom    3 type  1   force =     0.00001345   -0.00000777    0.00004843
     atom    4 type  1   force =     0.00000000   -0.00011316    0.00004834
     atom    5 type  1   force =     0.00001971    0.00001138   -0.00002536
     atom    6 type  1   force =    -0.00001965   -0.00001134   -0.00002498
     atom    7 type  1   force =     0.00004269   -0.00002465   -0.00000932
     atom    8 type  1   force =     0.00000000    0.00002269   -0.00002498
     atom    9 type  1   force =    -0.00001345   -0.00000777    0.00004843
     atom   10 type  1   force =    -0.00004291   -0.00002477   -0.00000904
     atom   11 type  1   force =    -0.00000000    0.00004930   -0.00000932
     atom   12 type  1   force =     0.00001965   -0.00001134   -0.00002498
     atom   13 type  1   force =    -0.00004269   -0.00002465   -0.00000932
     atom   14 type  1   force =     0.00009800    0.00005658    0.00004834
     atom   15 type  1   force =    -0.00000000   -0.00002275   -0.00002536
     atom   16 type  1   force =     0.00004291   -0.00002477   -0.00000904
     atom   17 type  1   force =    -0.00001971    0.00001138   -0.00002536
     atom   18 type  1   force =     0.00000000    0.00004955   -0.00000904
     atom   19 type  2   force =     0.00000000    0.00000000   -0.00008421
     The non-local contrib.  to forces
     atom    1 type  1   force =     0.00000000   -0.00360592   -0.01066462
     atom    2 type  1   force =     0.00304021   -0.00175526   -0.01066269
     atom    3 type  1   force =    -0.00312282    0.00180296   -0.01066462
     atom    4 type  1   force =     0.00000000    0.00351053   -0.01066269
     atom    5 type  1   force =    -0.00018899   -0.00010912   -0.00450929
     atom    6 type  1   force =     0.00018473    0.00010666   -0.00450859
     atom    7 type  1   force =     0.00315082   -0.00181913   -0.00540783
     atom    8 type  1   force =     0.00000000   -0.00021331   -0.00450859
     atom    9 type  1   force =     0.00312282    0.00180296   -0.01066462
     atom   10 type  1   force =     0.00306662    0.00177051   -0.00540473
     atom   11 type  1   force =     0.00000000    0.00363825   -0.00540783
     atom   12 type  1   force =    -0.00018473    0.00010666   -0.00450859
     atom   13 type  1   force =    -0.00315082   -0.00181913   -0.00540783
     atom   14 type  1   force =    -0.00304021   -0.00175526   -0.01066269
     atom   15 type  1   force =     0.00000000    0.00021823   -0.00450929
     atom   16 type  1   force =    -0.00306662    0.00177051   -0.00540473
     atom   17 type  1   force =     0.00018899   -0.00010912   -0.00450929
     atom   18 type  1   force =     0.00000000   -0.00354103   -0.00540473
     atom   19 type  2   force =     0.00000000    0.00000000   -0.00106646
     The ionic contribution  to forces
     atom    1 type  1   force =     0.00000000   -0.07437706   -0.26336629
     atom    2 type  1   force =     0.06422354   -0.03707948   -0.26339542
     atom    3 type  1   force =    -0.06441243    0.03718853   -0.26336629
     atom    4 type  1   force =    -0.00000000    0.07415895   -0.26339542
     atom    5 type  1   force =    -0.01177343   -0.00679739   -0.13183785
     atom    6 type  1   force =     0.01192604    0.00688550   -0.13187630
     atom    7 type  1   force =     0.04371780   -0.02524048   -0.16622545
     atom    8 type  1   force =    -0.00000000   -0.01377101   -0.13187630
     atom    9 type  1   force =     0.06441243    0.03718853   -0.26336629
     atom   10 type  1   force =     0.04337388    0.02504192   -0.16620853
     atom   11 type  1   force =     0.00000000    0.05048096   -0.16622545
     atom   12 type  1   force =    -0.01192604    0.00688550   -0.13187630
     atom   13 type  1   force =    -0.04371780   -0.02524048   -0.16622545
     atom   14 type  1   force =    -0.06422354   -0.03707948   -0.26339542
     atom   15 type  1   force =     0.00000000    0.01359479   -0.13183785
     atom   16 type  1   force =    -0.04337388    0.02504192   -0.16620853
     atom   17 type  1   force =     0.01177343   -0.00679739   -0.13183785
     atom   18 type  1   force =     0.00000000   -0.05008384   -0.16620853
     atom   19 type  2   force =    -0.00000000   -0.00000000    3.36872950
     The local contribution  to forces
     atom    1 type  1   force =     0.00000000    0.07795042    0.27396852
     atom    2 type  1   force =    -0.06733823    0.03887774    0.27399672
     atom    3 type  1   force =     0.06750705   -0.03897521    0.27396852
     atom    4 type  1   force =     0.00000000   -0.07775549    0.27399672
     atom    5 type  1   force =     0.01197718    0.00691503    0.13627559
     atom    6 type  1   force =    -0.01211347   -0.00699371    0.13631543
     atom    7 type  1   force =    -0.04675613    0.02699467    0.17155817
     atom    8 type  1   force =    -0.00000000    0.01398743    0.13631543
     atom    9 type  1   force =    -0.06750705   -0.03897521    0.27396852
     atom   10 type  1   force =    -0.04644440   -0.02681468    0.17153761
     atom   11 type  1   force =     0.00000000   -0.05398933    0.17155817
     atom   12 type  1   force =     0.01211347   -0.00699371    0.13631543
     atom   13 type  1   force =     0.04675613    0.02699467    0.17155817
     atom   14 type  1   force =     0.06733823    0.03887774    0.27399672
     atom   15 type  1   force =     0.00000000   -0.01383006    0.13627559
     atom   16 type  1   force =     0.04644440   -0.02681468    0.17153761
     atom   17 type  1   force =    -0.01197718    0.00691503    0.13627559
     atom   18 type  1   force =     0.00000000    0.05362937    0.17153761
     atom   19 type  2   force =     0.00000000    0.00000000   -3.36773332
     The core correction contribution to forces
     atom    1 type  1   force =     0.00000000    0.00004102    0.00012983
     atom    2 type  1   force =    -0.00003395    0.00001960    0.00012884
     atom    3 type  1   force =     0.00003552   -0.00002051    0.00012983
     atom    4 type  1   force =     0.00000000   -0.00003920    0.00012884
     atom    5 type  1   force =     0.00001499    0.00000866    0.00005860
     atom    6 type  1   force =    -0.00001529   -0.00000883    0.00005798
     atom    7 type  1   force =    -0.00006673    0.00003853    0.00008037
     atom    8 type  1   force =     0.00000000    0.00001766    0.00005798
     atom    9 type  1   force =    -0.00003552   -0.00002051    0.00012983
     atom   10 type  1   force =    -0.00006431   -0.00003713    0.00008013
     atom   11 type  1   force =     0.00000000   -0.00007706    0.00008037
     atom   12 type  1   force =     0.00001529   -0.00000883    0.00005798
     atom   13 type  1   force =     0.00006673    0.00003853    0.00008037
     atom   14 type  1   force =     0.00003395    0.00001960    0.00012884
     atom   15 type  1   force =    -0.00000000   -0.00001731    0.00005860
     atom   16 type  1   force =     0.00006431   -0.00003713    0.00008013
     atom   17 type  1   force =    -0.00001499    0.00000866    0.00005860
     atom   18 type  1   force =    -0.00000000    0.00007426    0.00008013
     atom   19 type  2   force =     0.00000000    0.00000000    0.00000000
     The Hubbard contrib.    to forces
     atom    1 type  1   force =     0.00000000    0.00000000    0.00000000
     atom    2 type  1   force =     0.00000000    0.00000000    0.00000000
     atom    3 type  1   force =     0.00000000    0.00000000    0.00000000
     atom    4 type  1   force =     0.00000000    0.00000000    0.00000000
     atom    5 type  1   force =     0.00000000    0.00000000    0.00000000
     atom    6 type  1   force =     0.00000000    0.00000000    0.00000000
     atom    7 type  1   force =     0.00000000    0.00000000    0.00000000
     atom    8 type  1   force =     0.00000000    0.00000000    0.00000000
     atom    9 type  1   force =     0.00000000    0.00000000    0.00000000
     atom   10 type  1   force =     0.00000000    0.00000000    0.00000000
     atom   11 type  1   force =     0.00000000    0.00000000    0.00000000
     atom   12 type  1   force =     0.00000000    0.00000000    0.00000000
     atom   13 type  1   force =     0.00000000    0.00000000    0.00000000
     atom   14 type  1   force =     0.00000000    0.00000000    0.00000000
     atom   15 type  1   force =     0.00000000    0.00000000    0.00000000
     atom   16 type  1   force =     0.00000000    0.00000000    0.00000000
     atom   17 type  1   force =     0.00000000    0.00000000    0.00000000
     atom   18 type  1   force =     0.00000000    0.00000000    0.00000000
     atom   19 type  2   force =     0.00000000    0.00000000    0.00000000
     The SCF correction term to forces
     atom    1 type  1   force =    -0.00000000    0.00000708   -0.00000450
     atom    2 type  1   force =     0.00001043   -0.00000602   -0.00000461
     atom    3 type  1   force =     0.00000613   -0.00000354   -0.00000450
     atom    4 type  1   force =     0.00000000    0.00001205   -0.00000461
     atom    5 type  1   force =    -0.00001004   -0.00000580    0.00000209
     atom    6 type  1   force =    -0.00000166   -0.00000096    0.00000101
     atom    7 type  1   force =    -0.00000306    0.00000176   -0.00000009
     atom    8 type  1   force =    -0.00000000    0.00000192    0.00000101
     atom    9 type  1   force =    -0.00000613   -0.00000354   -0.00000450
     atom   10 type  1   force =     0.00002530    0.00001461    0.00000098
     atom   11 type  1   force =     0.00000000   -0.00000353   -0.00000009
     atom   12 type  1   force =     0.00000166   -0.00000096    0.00000101
     atom   13 type  1   force =     0.00000306    0.00000176   -0.00000009
     atom   14 type  1   force =    -0.00001043   -0.00000602   -0.00000461
     atom   15 type  1   force =    -0.00000000    0.00001160    0.00000209
     atom   16 type  1   force =    -0.00002530    0.00001461    0.00000098
     atom   17 type  1   force =     0.00001004   -0.00000580    0.00000209
     atom   18 type  1   force =    -0.00000000   -0.00002921    0.00000098
     atom   19 type  2   force =     0.00000000    0.00000000    0.00000057

     Total force =     0.000287     Total SCF correction =     0.000061
     SCF correction compared to forces is large: reduce conv_thr to get better values


     Computing stress (Cartesian axis) and pressure


     negative rho (up, down):  3.006E-05 0.000E+00
          total   stress  (Ry/bohr**3)                   (kbar)     P=        3.77
   0.00004017  -0.00000000   0.00000000            5.91       -0.00        0.00
  -0.00000000   0.00004017   0.00000000           -0.00        5.91        0.00
   0.00000000   0.00000000  -0.00000343            0.00        0.00       -0.50

     Energy error            =      3.4E-06 Ry
     Gradient error          =      1.1E-04 Ry/Bohr

     bfgs converged in  18 scf cycles and  17 bfgs steps
     (criteria: energy <  1.0E-04 Ry, force <  1.0E-03 Ry/Bohr)

     End of BFGS Geometry Optimization

     Final energy             =    -332.9233654863 Ry

     File ./graphene_h_over_c.bfgs deleted, as requested
Begin final coordinates

ATOMIC_POSITIONS (angstrom)
C            -0.0000000000        0.0001756960        7.4048947834
C             1.2298668129        0.7102177267        7.4048932467
C            -1.2298478428        2.1303346453        7.4048947834
C             0.0000000000        2.8404095332        7.4048932467
C            -2.4599255505        4.2608879700        7.4070123276
C            -1.2300748448        4.9709426060        7.4070099318
C             2.4594963280        0.0002907951        7.4059493606
C             3.6900000000        0.7102272544        7.4070099318
C             1.2298478428        2.1303346453        7.4048947834
C             2.4595152547        2.8402834565        7.4059511986
C             0.0000000000        4.2602633963        7.4059493606
C             1.2300748448        4.9709426060        7.4070099318
C             4.9205036720        0.0002907951        7.4059493606
C             6.1501331871        0.7102177267        7.4048932467
C             3.6900000000        2.1303365264        7.4070123276
C             4.9204847453        2.8402834565        7.4059511986
C             2.4599255505        4.2608879700        7.4070123276
C             3.6900000000        4.9715455534        7.4059511986
H             0.0000000000        1.4202816622       10.1958756575
End final coordinates



     Writing all to output data dir ./graphene_h_over_c.save/

     init_run     :      3.86s CPU      4.37s WALL (       1 calls)
     electrons    :    497.70s CPU    529.12s WALL (      18 calls)
     update_pot   :     44.37s CPU     44.77s WALL (      17 calls)
     forces       :     41.18s CPU     42.17s WALL (      18 calls)
     stress       :    190.24s CPU    193.91s WALL (      18 calls)

     Called by init_run:
     wfcinit      :      1.07s CPU      1.18s WALL (       1 calls)
     potinit      :      1.02s CPU      1.11s WALL (       1 calls)
     hinit0       :      1.17s CPU      1.34s WALL (       1 calls)

     Called by electrons:
     c_bands      :    339.49s CPU    345.87s WALL (     137 calls)
     sum_band     :     95.41s CPU     99.30s WALL (     137 calls)
     v_of_rho     :     34.42s CPU     35.10s WALL (     152 calls)
     newd         :     19.32s CPU     21.19s WALL (     152 calls)
     PAW_pot      :      9.41s CPU      9.61s WALL (     169 calls)
     mix_rho      :      3.96s CPU      4.04s WALL (     137 calls)

     Called by c_bands:
     init_us_2    :      6.64s CPU      6.76s WALL (    2296 calls)
     init_us_2:cp :      6.62s CPU      6.75s WALL (    2296 calls)
     cegterg      :    326.38s CPU    332.48s WALL (     959 calls)

     Called by *egterg:
     cdiaghg      :      9.49s CPU      9.68s WALL (    4217 calls)
     h_psi        :    249.95s CPU    254.86s WALL (    4364 calls)
     s_psi        :     15.26s CPU     15.49s WALL (    4364 calls)
     g_psi        :      1.19s CPU      1.22s WALL (    3398 calls)

     Called by h_psi:
     h_psi:calbec :     16.38s CPU     16.66s WALL (    4364 calls)
     vloc_psi     :    215.11s CPU    219.42s WALL (    4364 calls)
     add_vuspsi   :     15.82s CPU     16.07s WALL (    4364 calls)

     General routines
     calbec       :     24.32s CPU     24.74s WALL (    6072 calls)
     fft          :     30.70s CPU     31.56s WALL (    2410 calls)
     ffts         :      0.36s CPU      0.39s WALL (     289 calls)
     fftw         :    120.98s CPU    122.96s WALL (  268778 calls)
     interpolate  :      1.95s CPU      2.01s WALL (     152 calls)

     Parallel routines

     PWSCF        :  13m 2.99s CPU  14m 9.30s WALL


   This run was terminated on:  22:22: 0   4Feb2025            

=------------------------------------------------------------------------------=
   JOB DONE.
=------------------------------------------------------------------------------=
