
     Program PWSCF v.7.2 starts on 19Jan2025 at 16:33:17 

     This program is part of the open-source Quantum ESPRESSO suite
     for quantum simulation of materials; please cite
         "P. Giannozzi et al., J. Phys.:Condens. Matter 21 395502 (2009);
         "P. Giannozzi et al., J. Phys.:Condens. Matter 29 465901 (2017);
         "P. Giannozzi et al., J. Chem. Phys. 152 154105 (2020);
          URL http://www.quantum-espresso.org", 
     in publications or presentations arising from this work. More details at
     http://www.quantum-espresso.org/quote

     Parallel version (MPI), running on    20 processors

     MPI processes distributed on     1 nodes
     149564 MiB available memory on the printing compute node when the environment starts

     Reading input from pw.in
Warning: card &CELL ignored
Warning: card / ignored
Warning: card &FCP ignored
Warning: card / ignored
Warning: card &RISM ignored
Warning: card / ignored

     Current dimensions of program PWSCF are:
     Max number of different atomic species (ntypx) = 10
     Max number of k-points (npk) =  40000
     Max angular momentum in pseudopotentials (lmaxx) =  4
     file Al.pbe-n-kjpaw_psl.1.0.0.UPF: wavefunction(s)  3S 3P renormalized
     file O.pbe-n-kjpaw_psl.1.0.0.UPF: wavefunction(s)  2S 2P renormalized

     gamma-point specific algorithms are used
     Message from routine setup:
     using ibrav=0 with symmetry is DISCOURAGED, use correct ibrav instead

     R & G space division:  proc/nbgrp/npool/nimage =      20
     Subspace diagonalization in iterative solution of the eigenvalue problem:
     a serial algorithm will be used


     Parallelization info
     --------------------
     sticks:   dense  smooth     PW     G-vecs:    dense   smooth      PW
     Min         114      94     22                17470    12774    1578
     Max         116      96     24                17504    12786    1608
     Sum        2299    1891    475               349745   255583   31885

     Using Slab Decomposition



     bravais-lattice index     =            0
     lattice parameter (alat)  =      10.8235  a.u.
     unit-cell volume          =    4282.6914 (a.u.)^3
     number of atoms/cell      =           10
     number of atomic types    =            2
     number of electrons       =        36.00
     number of Kohn-Sham states=           22
     kinetic-energy cutoff     =      58.0000  Ry
     charge density cutoff     =     286.0000  Ry
     scf convergence threshold =      1.0E-08
     mixing beta               =       0.7000
     number of iterations used =            8  plain     mixing
     energy convergence thresh.=      1.0E-04
     force convergence thresh. =      1.0E-03
     Exchange-correlation= SLA  PW   PBX  PBC
                           (   1   4   3   4   0   0   0)
     nstep                     =           50


     celldm(1)=  10.823529  celldm(2)=   0.000000  celldm(3)=   0.000000
     celldm(4)=   0.000000  celldm(5)=   0.000000  celldm(6)=   0.000000

     crystal axes: (cart. coord. in units of alat)
               a(1) = (   1.000000   0.000000   0.000000 )  
               a(2) = (   0.500000   0.866025   0.000000 )  
               a(3) = (   0.000000   0.000000   3.900134 )  

     reciprocal axes: (cart. coord. in units 2 pi/alat)
               b(1) = (  1.000000 -0.577350  0.000000 )  
               b(2) = (  0.000000  1.154701  0.000000 )  
               b(3) = (  0.000000  0.000000  0.256401 )  


     PseudoPot. # 1 for Al read from file:
     /home/amendieta/pseudo/Al/Al.pbe-n-kjpaw_psl.1.0.0.UPF
     MD5 check sum: 502b6b27b9c6270cab5dd1084b96fa6d
     Pseudo is Projector augmented-wave + core cor, Zval =  3.0
     Generated using &quot;atomic&quot; code by A. Dal Corso  v.6.3
     Shape of augmentation charge: PSQ
     Using radial grid of 1135 points,  6 beta functions with: 
                l(1) =   0
                l(2) =   0
                l(3) =   1
                l(4) =   1
                l(5) =   2
                l(6) =   2
     Q(r) pseudized with 0 coefficients 


     PseudoPot. # 2 for O  read from file:
     /home/amendieta/pseudo/Al/O.pbe-n-kjpaw_psl.1.0.0.UPF
     MD5 check sum: e99d9cef9b487d1ca56f5b95ecd0fd7a
     Pseudo is Projector augmented-wave + core cor, Zval =  6.0
     Generated using &quot;atomic&quot; code by A. Dal Corso  v.6.3
     Shape of augmentation charge: PSQ
     Using radial grid of 1095 points,  4 beta functions with: 
                l(1) =   0
                l(2) =   0
                l(3) =   1
                l(4) =   1
     Q(r) pseudized with 0 coefficients 


     atomic species   valence    mass     pseudopotential
        Al             3.00    26.98154     Al( 1.00)
        O              6.00    15.99900     O ( 1.00)

      2 Sym. Ops. (no inversion) found



   Cartesian axes

     site n.     atom                  positions (alat units)
         1           Al  tau(   1) = (  -0.0000000   0.2886751   1.7459427  )
         2           Al  tau(   2) = (   0.5000000   0.2886751   1.7459427  )
         3           Al  tau(   3) = (   0.2500000   0.7216878   1.7459427  )
         4           Al  tau(   4) = (   0.7500000   0.7216878   1.7459427  )
         5           Al  tau(   5) = (   0.0000000   0.0000000   2.1541910  )
         6           Al  tau(   6) = (   0.5000000   0.0000000   2.1541910  )
         7           Al  tau(   7) = (   0.2500000   0.4330127   2.1541910  )
         8           Al  tau(   8) = (   0.7500000   0.4330127   2.1541910  )
         9           O   tau(   9) = (   0.0000000   0.0000000   2.4160824  )
        10           O   tau(  10) = (   0.2500000   0.1443376   2.4160824  )

     number of k points=     1  Methfessel-Paxton smearing, width (Ry)=  0.0200
                       cart. coord. in units 2pi/alat
        k(    1) = (   0.0000000   0.0000000   0.0000000), wk =   2.0000000

     Dense  grid:   174873 G-vectors     FFT dimensions: (  60,  60, 240)

     Smooth grid:   127792 G-vectors     FFT dimensions: (  54,  54, 216)

     Estimated max dynamical RAM per process >      39.66 MB

     Estimated total dynamical RAM >     793.23 MB

     Initial potential from superposition of free atoms

     starting charge      35.9817, renormalised to      36.0000

     negative rho (up, down):  8.026E-05 0.000E+00
     Starting wfcs are   40 randomized atomic wfcs
     Checking if some PAW data can be deallocated... 

     total cpu time spent up to now is        1.8 secs

     Self-consistent Calculation

     iteration #  1     ecut=    58.00 Ry     beta= 0.70
     Davidson diagonalization with overlap
     ethr =  1.00E-02,  avg # of iterations =  4.0

     negative rho (up, down):  1.548E-06 0.000E+00

     total cpu time spent up to now is        2.1 secs

     total energy              =    -396.62198548 Ry
     estimated scf accuracy    <       3.08745172 Ry

     iteration #  2     ecut=    58.00 Ry     beta= 0.70
     Davidson diagonalization with overlap
     ethr =  8.58E-03,  avg # of iterations =  8.0

     negative rho (up, down):  1.261E-03 0.000E+00

     total cpu time spent up to now is        2.5 secs

     total energy              =    -391.65401920 Ry
     estimated scf accuracy    <     141.13399129 Ry

     iteration #  3     ecut=    58.00 Ry     beta= 0.70
     Davidson diagonalization with overlap
     ethr =  8.58E-03,  avg # of iterations = 10.0

     negative rho (up, down):  9.933E-04 0.000E+00

     total cpu time spent up to now is        2.9 secs

     total energy              =    -397.53013957 Ry
     estimated scf accuracy    <      10.28461355 Ry

     iteration #  4     ecut=    58.00 Ry     beta= 0.70
     Davidson diagonalization with overlap
     ethr =  8.58E-03,  avg # of iterations =  8.0

     negative rho (up, down):  4.249E-04 0.000E+00

     total cpu time spent up to now is        3.2 secs

     total energy              =    -398.32684369 Ry
     estimated scf accuracy    <       1.94457774 Ry

     iteration #  5     ecut=    58.00 Ry     beta= 0.70
     Davidson diagonalization with overlap
     ethr =  5.40E-03,  avg # of iterations =  2.0

     negative rho (up, down):  2.355E-04 0.000E+00

     total cpu time spent up to now is        3.5 secs

     total energy              =    -398.37693711 Ry
     estimated scf accuracy    <       1.05579488 Ry

     iteration #  6     ecut=    58.00 Ry     beta= 0.70
     Davidson diagonalization with overlap
     ethr =  2.93E-03,  avg # of iterations =  7.0

     negative rho (up, down):  2.194E-05 0.000E+00

     total cpu time spent up to now is        3.8 secs

     total energy              =    -398.95925588 Ry
     estimated scf accuracy    <       0.13643753 Ry

     iteration #  7     ecut=    58.00 Ry     beta= 0.70
     Davidson diagonalization with overlap
     ethr =  3.79E-04,  avg # of iterations = 17.0

     negative rho (up, down):  1.504E-04 0.000E+00

     total cpu time spent up to now is        4.2 secs

     total energy              =    -399.02660680 Ry
     estimated scf accuracy    <       2.11182045 Ry

     iteration #  8     ecut=    58.00 Ry     beta= 0.70
     Davidson diagonalization with overlap
     ethr =  3.79E-04,  avg # of iterations =  2.0

     negative rho (up, down):  2.036E-04 0.000E+00

     total cpu time spent up to now is        4.5 secs

     total energy              =    -398.98787741 Ry
     estimated scf accuracy    <       1.05446049 Ry

     iteration #  9     ecut=    58.00 Ry     beta= 0.70
     Davidson diagonalization with overlap
     ethr =  3.79E-04,  avg # of iterations =  1.0

     negative rho (up, down):  1.054E-04 0.000E+00

     total cpu time spent up to now is        4.8 secs

     total energy              =    -398.99646203 Ry
     estimated scf accuracy    <       0.13497198 Ry

     iteration # 10     ecut=    58.00 Ry     beta= 0.70
     Davidson diagonalization with overlap
     ethr =  3.75E-04,  avg # of iterations =  2.0

     negative rho (up, down):  1.120E-04 0.000E+00

     total cpu time spent up to now is        5.1 secs

     total energy              =    -398.99016552 Ry
     estimated scf accuracy    <       0.04691810 Ry

     iteration # 11     ecut=    58.00 Ry     beta= 0.70
     Davidson diagonalization with overlap
     ethr =  1.30E-04,  avg # of iterations =  2.0

     negative rho (up, down):  1.788E-04 0.000E+00

     total cpu time spent up to now is        5.5 secs

     total energy              =    -398.98877593 Ry
     estimated scf accuracy    <       0.03772230 Ry

     iteration # 12     ecut=    58.00 Ry     beta= 0.70
     Davidson diagonalization with overlap
     ethr =  1.05E-04,  avg # of iterations =  5.0

     negative rho (up, down):  1.511E-04 0.000E+00

     total cpu time spent up to now is        5.8 secs

     total energy              =    -398.99667647 Ry
     estimated scf accuracy    <       0.02052974 Ry

     iteration # 13     ecut=    58.00 Ry     beta= 0.70
     Davidson diagonalization with overlap
     ethr =  5.70E-05,  avg # of iterations =  2.0

     negative rho (up, down):  1.695E-04 0.000E+00

     total cpu time spent up to now is        6.1 secs

     total energy              =    -398.99796161 Ry
     estimated scf accuracy    <       0.02036385 Ry

     iteration # 14     ecut=    58.00 Ry     beta= 0.70
     Davidson diagonalization with overlap
     ethr =  5.66E-05,  avg # of iterations =  1.0

     negative rho (up, down):  1.947E-04 0.000E+00

     total cpu time spent up to now is        6.4 secs

     total energy              =    -398.99895920 Ry
     estimated scf accuracy    <       0.02100539 Ry

     iteration # 15     ecut=    58.00 Ry     beta= 0.70
     Davidson diagonalization with overlap
     ethr =  5.66E-05,  avg # of iterations =  2.0

     negative rho (up, down):  1.987E-04 0.000E+00

     total cpu time spent up to now is        6.7 secs

     total energy              =    -398.99679544 Ry
     estimated scf accuracy    <       0.03506099 Ry

     iteration # 16     ecut=    58.00 Ry     beta= 0.70
     Davidson diagonalization with overlap
     ethr =  5.66E-05,  avg # of iterations =  2.0

     negative rho (up, down):  1.853E-04 0.000E+00

     total cpu time spent up to now is        7.0 secs

     total energy              =    -398.99808074 Ry
     estimated scf accuracy    <       0.00347895 Ry

     iteration # 17     ecut=    58.00 Ry     beta= 0.70
     Davidson diagonalization with overlap
     ethr =  9.66E-06,  avg # of iterations = 10.0

     negative rho (up, down):  1.845E-04 0.000E+00

     total cpu time spent up to now is        7.4 secs

     total energy              =    -398.99843443 Ry
     estimated scf accuracy    <       0.00484627 Ry

     iteration # 18     ecut=    58.00 Ry     beta= 0.70
     Davidson diagonalization with overlap
     ethr =  9.66E-06,  avg # of iterations =  2.0

     negative rho (up, down):  1.795E-04 0.000E+00

     total cpu time spent up to now is        7.7 secs

     total energy              =    -398.99821578 Ry
     estimated scf accuracy    <       0.00320395 Ry

     iteration # 19     ecut=    58.00 Ry     beta= 0.70
     Davidson diagonalization with overlap
     ethr =  8.90E-06,  avg # of iterations =  1.0

     negative rho (up, down):  1.788E-04 0.000E+00

     total cpu time spent up to now is        8.0 secs

     total energy              =    -398.99865435 Ry
     estimated scf accuracy    <       0.00195918 Ry

     iteration # 20     ecut=    58.00 Ry     beta= 0.70
     Davidson diagonalization with overlap
     ethr =  5.44E-06,  avg # of iterations =  1.0

     negative rho (up, down):  1.778E-04 0.000E+00

     total cpu time spent up to now is        8.3 secs

     total energy              =    -398.99884220 Ry
     estimated scf accuracy    <       0.00272095 Ry

     iteration # 21     ecut=    58.00 Ry     beta= 0.70
     Davidson diagonalization with overlap
     ethr =  5.44E-06,  avg # of iterations =  1.0

     negative rho (up, down):  1.778E-04 0.000E+00

     total cpu time spent up to now is        8.6 secs

     total energy              =    -398.99912560 Ry
     estimated scf accuracy    <       0.00300739 Ry

     iteration # 22     ecut=    58.00 Ry     beta= 0.70
     Davidson diagonalization with overlap
     ethr =  5.44E-06,  avg # of iterations =  1.0

     negative rho (up, down):  1.808E-04 0.000E+00

     total cpu time spent up to now is        9.0 secs

     total energy              =    -398.99930938 Ry
     estimated scf accuracy    <       0.00409104 Ry

     iteration # 23     ecut=    58.00 Ry     beta= 0.70
     Davidson diagonalization with overlap
     ethr =  5.44E-06,  avg # of iterations =  1.0

     negative rho (up, down):  1.793E-04 0.000E+00

     total cpu time spent up to now is        9.3 secs

     total energy              =    -398.99913239 Ry
     estimated scf accuracy    <       0.00468935 Ry

     iteration # 24     ecut=    58.00 Ry     beta= 0.70
     Davidson diagonalization with overlap
     ethr =  5.44E-06,  avg # of iterations =  1.0

     negative rho (up, down):  1.722E-04 0.000E+00

     total cpu time spent up to now is        9.6 secs

     total energy              =    -398.99776954 Ry
     estimated scf accuracy    <       0.00424169 Ry

     iteration # 25     ecut=    58.00 Ry     beta= 0.70
     Davidson diagonalization with overlap
     ethr =  5.44E-06,  avg # of iterations =  2.0

     negative rho (up, down):  1.722E-04 0.000E+00

     total cpu time spent up to now is        9.9 secs

     total energy              =    -398.99791836 Ry
     estimated scf accuracy    <       0.00047883 Ry

     iteration # 26     ecut=    58.00 Ry     beta= 0.70
     Davidson diagonalization with overlap
     ethr =  1.33E-06,  avg # of iterations =  9.0

     negative rho (up, down):  1.710E-04 0.000E+00

     total cpu time spent up to now is       10.2 secs

     total energy              =    -398.99811114 Ry
     estimated scf accuracy    <       0.00099899 Ry

     iteration # 27     ecut=    58.00 Ry     beta= 0.70
     Davidson diagonalization with overlap
     ethr =  1.33E-06,  avg # of iterations =  1.0

     negative rho (up, down):  1.728E-04 0.000E+00

     total cpu time spent up to now is       10.5 secs

     total energy              =    -398.99811243 Ry
     estimated scf accuracy    <       0.00016259 Ry

     iteration # 28     ecut=    58.00 Ry     beta= 0.70
     Davidson diagonalization with overlap
     ethr =  4.52E-07,  avg # of iterations =  2.0

     negative rho (up, down):  1.727E-04 0.000E+00

     total cpu time spent up to now is       10.9 secs

     total energy              =    -398.99812801 Ry
     estimated scf accuracy    <       0.00010243 Ry

     iteration # 29     ecut=    58.00 Ry     beta= 0.70
     Davidson diagonalization with overlap
     ethr =  2.85E-07,  avg # of iterations =  1.0

     negative rho (up, down):  1.735E-04 0.000E+00

     total cpu time spent up to now is       11.2 secs

     total energy              =    -398.99813406 Ry
     estimated scf accuracy    <       0.00000773 Ry

     iteration # 30     ecut=    58.00 Ry     beta= 0.70
     Davidson diagonalization with overlap
     ethr =  2.15E-08,  avg # of iterations =  9.0

     negative rho (up, down):  1.738E-04 0.000E+00

     total cpu time spent up to now is       11.5 secs

     total energy              =    -398.99814016 Ry
     estimated scf accuracy    <       0.00000245 Ry

     iteration # 31     ecut=    58.00 Ry     beta= 0.70
     Davidson diagonalization with overlap
     ethr =  6.80E-09,  avg # of iterations =  2.0

     negative rho (up, down):  1.739E-04 0.000E+00

     total cpu time spent up to now is       11.8 secs

     total energy              =    -398.99814000 Ry
     estimated scf accuracy    <       0.00000169 Ry

     iteration # 32     ecut=    58.00 Ry     beta= 0.70
     Davidson diagonalization with overlap
     ethr =  4.71E-09,  avg # of iterations =  2.0

     negative rho (up, down):  1.739E-04 0.000E+00

     total cpu time spent up to now is       12.1 secs

     total energy              =    -398.99814013 Ry
     estimated scf accuracy    <       0.00000042 Ry

     iteration # 33     ecut=    58.00 Ry     beta= 0.70
     Davidson diagonalization with overlap
     ethr =  1.18E-09,  avg # of iterations = 11.0

     negative rho (up, down):  1.739E-04 0.000E+00

     total cpu time spent up to now is       12.5 secs

     total energy              =    -398.99814027 Ry
     estimated scf accuracy    <       0.00000016 Ry

     iteration # 34     ecut=    58.00 Ry     beta= 0.70
     Davidson diagonalization with overlap
     ethr =  4.42E-10,  avg # of iterations =  2.0

     negative rho (up, down):  1.739E-04 0.000E+00

     total cpu time spent up to now is       12.8 secs

     total energy              =    -398.99814028 Ry
     estimated scf accuracy    <       0.00000002 Ry

     iteration # 35     ecut=    58.00 Ry     beta= 0.70
     Davidson diagonalization with overlap
     ethr =  5.60E-11,  avg # of iterations =  5.0

     negative rho (up, down):  1.739E-04 0.000E+00

     total cpu time spent up to now is       13.1 secs

     total energy              =    -398.99814029 Ry
     estimated scf accuracy    <       0.00000002 Ry

     iteration # 36     ecut=    58.00 Ry     beta= 0.70
     Davidson diagonalization with overlap
     ethr =  4.45E-11,  avg # of iterations =  7.0

     negative rho (up, down):  1.739E-04 0.000E+00

     total cpu time spent up to now is       13.5 secs

     End of self-consistent calculation

          k = 0.0000 0.0000 0.0000 ( 15943 PWs)   bands (ev):

   -23.5050 -19.4533 -11.2920  -9.2254  -8.3141  -7.9200  -7.0945  -6.0157
    -5.9029  -5.2843  -5.2421  -5.1214  -5.0573  -4.6715  -4.5188  -3.4786
    -2.4191  -2.1605  -1.9951  -1.8225  -1.7170  -1.0141

     the Fermi energy is    -2.0750 ev

!    total energy              =    -398.99814028 Ry
     total all-electron energy =     -4185.834162 Ry
     estimated scf accuracy    <          8.1E-09 Ry
     smearing contrib. (-TS)   =      -0.00169740 Ry
     internal energy E=F+TS    =    -398.99644288 Ry

     The total energy is F=E-TS. E is the sum of the following terms:
     one-electron contribution =    -657.66671471 Ry
     hartree contribution      =     337.56948491 Ry
     xc contribution           =     -34.95812786 Ry
     ewald contribution        =     252.72930772 Ry
     one-center paw contrib.   =    -296.67039293 Ry

     convergence has been achieved in  36 iterations

     negative rho (up, down):  1.739E-04 0.000E+00

     Forces acting on atoms (cartesian axes, Ry/au):

     atom    1 type  1   force =    -0.01906155    0.02082581    0.05378606
     atom    2 type  1   force =     0.01899461    0.01096654    0.04863734
     atom    3 type  1   force =    -0.01412905   -0.00815741    0.05175538
     atom    4 type  1   force =     0.00850490   -0.02692069    0.05378606
     atom    5 type  1   force =    -0.04413695   -0.02548248   -0.49347708
     atom    6 type  1   force =     0.01765265   -0.00815509   -0.00191544
     atom    7 type  1   force =     0.00176381    0.01936519   -0.00191544
     atom    8 type  1   force =    -0.00613563   -0.00354241   -0.02941280
     atom    9 type  2   force =    -0.06029140   -0.03480926    0.42122970
     atom   10 type  2   force =     0.09683861    0.05590980   -0.10247377
     The non-local contrib.  to forces
     atom    1 type  1   force =    -0.00571897   -0.02779269   -0.07461153
     atom    2 type  1   force =    -0.03711511   -0.02142842   -0.02756220
     atom    3 type  1   force =     0.00074169    0.00042821   -0.03138764
     atom    4 type  1   force =    -0.02692866    0.00894357   -0.07461153
     atom    5 type  1   force =     0.04085426    0.02358722   -0.45818097
     atom    6 type  1   force =    -0.03558766    0.02930826    0.08304884
     atom    7 type  1   force =     0.00758787   -0.04547395    0.08304884
     atom    8 type  1   force =     0.01703677    0.00983618   -0.01186825
     atom    9 type  2   force =     0.72497441    0.41856417   -1.20329835
     atom   10 type  2   force =    -0.52639744   -0.30391570   -1.14108408
     The ionic contribution  to forces
     atom    1 type  1   force =    -0.05171043    0.08956509   -6.44906896
     atom    2 type  1   force =     0.05171043    0.02985503   -6.38397510
     atom    3 type  1   force =    -0.05171043   -0.02985503   -6.38397510
     atom    4 type  1   force =     0.05171043   -0.08956509   -6.44906896
     atom    5 type  1   force =    -0.94037083   -0.54292335   -3.50805455
     atom    6 type  1   force =     0.94037083   -0.54292335    0.17360459
     atom    7 type  1   force =    -0.00000000    1.08584671    0.17360459
     atom    8 type  1   force =     0.00000000   -0.00000000    0.91859598
     atom    9 type  2   force =    -5.50454185   -3.17804872   14.87544616
     atom   10 type  2   force =     5.50454185    3.17804872   13.03289137
     The local contribution  to forces
     atom    1 type  1   force =     0.03788000   -0.04388541    6.56980150
     atom    2 type  1   force =     0.00072055    0.00039225    6.45741838
     atom    3 type  1   force =     0.03699008    0.02138242    6.46398255
     atom    4 type  1   force =    -0.01904795    0.05475600    6.56979290
     atom    5 type  1   force =     0.85914017    0.49603608    3.41601567
     atom    6 type  1   force =    -0.89039372    0.50819901   -0.24992880
     atom    7 type  1   force =    -0.00509680   -1.02521518   -0.24993007
     atom    8 type  1   force =    -0.02145331   -0.01239337   -0.93697107
     atom    9 type  2   force =     4.72667689    2.72901760  -13.25662697
     atom   10 type  2   force =    -4.88657261   -2.82126374  -12.00460170
     The core correction contribution to forces
     atom    1 type  1   force =     0.00048365    0.00293236    0.00771279
     atom    2 type  1   force =     0.00368851    0.00212885    0.00280070
     atom    3 type  1   force =    -0.00015982   -0.00009130    0.00318410
     atom    4 type  1   force =     0.00278179   -0.00104726    0.00771199
     atom    5 type  1   force =    -0.00376898   -0.00217558    0.05676391
     atom    6 type  1   force =     0.00327907   -0.00273473   -0.00860703
     atom    7 type  1   force =    -0.00072952    0.00420633   -0.00860749
     atom    8 type  1   force =    -0.00171631   -0.00099092    0.00086175
     atom    9 type  2   force =    -0.00743801   -0.00429354    0.00564697
     atom   10 type  2   force =     0.00530618    0.00306352    0.01029632
     The Hubbard contrib.    to forces
     atom    1 type  1   force =     0.00000000    0.00000000    0.00000000
     atom    2 type  1   force =     0.00000000    0.00000000    0.00000000
     atom    3 type  1   force =     0.00000000    0.00000000    0.00000000
     atom    4 type  1   force =     0.00000000    0.00000000    0.00000000
     atom    5 type  1   force =     0.00000000    0.00000000    0.00000000
     atom    6 type  1   force =     0.00000000    0.00000000    0.00000000
     atom    7 type  1   force =     0.00000000    0.00000000    0.00000000
     atom    8 type  1   force =     0.00000000    0.00000000    0.00000000
     atom    9 type  2   force =     0.00000000    0.00000000    0.00000000
     atom   10 type  2   force =     0.00000000    0.00000000    0.00000000
     The SCF correction term to forces
     atom    1 type  1   force =     0.00000285    0.00000467   -0.00003886
     atom    2 type  1   force =    -0.00000241    0.00001042   -0.00003961
     atom    3 type  1   force =     0.00000478   -0.00000932   -0.00004370
     atom    4 type  1   force =    -0.00000472   -0.00000546   -0.00003756
     atom    5 type  1   force =     0.00000802   -0.00000181   -0.00001631
     atom    6 type  1   force =    -0.00000788   -0.00000173   -0.00002551
     atom    7 type  1   force =    -0.00000018   -0.00000220   -0.00002920
     atom    8 type  1   force =    -0.00000019    0.00000553   -0.00002638
     atom    9 type  2   force =     0.00002521   -0.00002376    0.00006673
     atom   10 type  2   force =    -0.00003353   -0.00002876    0.00002916

     Total force =     0.682827     Total SCF correction =     0.000133

     BFGS Geometry Optimization
     Energy error            =      0.0E+00 Ry
     Gradient error          =      4.9E-01 Ry/Bohr

     number of scf cycles    =   1
     number of bfgs steps    =   0

     energy             new  =    -398.9981402832 Ry

     new trust radius        =       0.4961018594 bohr
     new conv_thr            =       0.0000000100 Ry


ATOMIC_POSITIONS (angstrom)
Al           -0.0100869388        1.6644261199       10.0284623564
Al            2.8738339782        1.6592088209       10.0257377708
Al            1.4244144586        4.1291972238       10.0273877687
Al            4.3001742969        4.1192681239       10.0284623564
Al           -0.0233562696       -0.0134847485       12.0771317659
Al            2.8731238452       -0.0043154886       12.3372549805
Al            1.4328245999        2.4903559825       12.3372549805
Al            4.2924268601        2.4782338032       12.3227040063
O            -0.0319048347       -0.0184202649       14.0611737481
O             1.4831360189        0.8562889798       13.7840418076



     Writing config-only to output data dir ./Al.save/
     NEW-OLD atomic charge density approx. for the potential

     negative rho (up, down):  2.402E-04 0.000E+00

     total cpu time spent up to now is       15.4 secs

     Self-consistent Calculation

     iteration #  1     ecut=    58.00 Ry     beta= 0.70
     Davidson diagonalization with overlap
     ethr =  1.00E-06,  avg # of iterations = 28.0

     negative rho (up, down):  1.809E-04 0.000E+00

     total cpu time spent up to now is       16.0 secs

     total energy              =    -398.92059437 Ry
     estimated scf accuracy    <       0.29260742 Ry

     iteration #  2     ecut=    58.00 Ry     beta= 0.70
     Davidson diagonalization with overlap
     ethr =  8.13E-04,  avg # of iterations =  7.0

     negative rho (up, down):  8.439E-04 0.000E+00

     total cpu time spent up to now is       16.3 secs

     total energy              =    -398.69175778 Ry
     estimated scf accuracy    <       7.53044015 Ry

     iteration #  3     ecut=    58.00 Ry     beta= 0.70
     Davidson diagonalization with overlap
     ethr =  8.13E-04,  avg # of iterations =  5.0

     negative rho (up, down):  5.893E-04 0.000E+00

     total cpu time spent up to now is       16.7 secs

     total energy              =    -398.94543362 Ry
     estimated scf accuracy    <       1.81040811 Ry

     iteration #  4     ecut=    58.00 Ry     beta= 0.70
     Davidson diagonalization with overlap
     ethr =  8.13E-04,  avg # of iterations =  2.0

     negative rho (up, down):  3.548E-04 0.000E+00

     total cpu time spent up to now is       17.0 secs

     total energy              =    -399.06455811 Ry
     estimated scf accuracy    <       0.14933306 Ry

     iteration #  5     ecut=    58.00 Ry     beta= 0.70
     Davidson diagonalization with overlap
     ethr =  4.15E-04,  avg # of iterations =  5.0

     negative rho (up, down):  2.185E-04 0.000E+00

     total cpu time spent up to now is       17.3 secs

     total energy              =    -399.09183276 Ry
     estimated scf accuracy    <       0.04988123 Ry

     iteration #  6     ecut=    58.00 Ry     beta= 0.70
     Davidson diagonalization with overlap
     ethr =  1.39E-04,  avg # of iterations =  5.0

     negative rho (up, down):  2.015E-04 0.000E+00

     total cpu time spent up to now is       17.6 secs

     total energy              =    -399.11036359 Ry
     estimated scf accuracy    <       0.03423159 Ry

     iteration #  7     ecut=    58.00 Ry     beta= 0.70
     Davidson diagonalization with overlap
     ethr =  9.51E-05,  avg # of iterations =  2.0

     negative rho (up, down):  1.968E-04 0.000E+00

     total cpu time spent up to now is       17.9 secs

     total energy              =    -399.11209952 Ry
     estimated scf accuracy    <       0.01077790 Ry

     iteration #  8     ecut=    58.00 Ry     beta= 0.70
     Davidson diagonalization with overlap
     ethr =  2.99E-05,  avg # of iterations =  2.0

     negative rho (up, down):  1.955E-04 0.000E+00

     total cpu time spent up to now is       18.2 secs

     total energy              =    -399.11135926 Ry
     estimated scf accuracy    <       0.00652728 Ry

     iteration #  9     ecut=    58.00 Ry     beta= 0.70
     Davidson diagonalization with overlap
     ethr =  1.81E-05,  avg # of iterations =  2.0

     negative rho (up, down):  1.896E-04 0.000E+00

     total cpu time spent up to now is       18.6 secs

     total energy              =    -399.11183684 Ry
     estimated scf accuracy    <       0.00104416 Ry

     iteration # 10     ecut=    58.00 Ry     beta= 0.70
     Davidson diagonalization with overlap
     ethr =  2.90E-06,  avg # of iterations = 10.0

     negative rho (up, down):  1.878E-04 0.000E+00

     total cpu time spent up to now is       18.9 secs

     total energy              =    -399.11241824 Ry
     estimated scf accuracy    <       0.00043200 Ry

     iteration # 11     ecut=    58.00 Ry     beta= 0.70
     Davidson diagonalization with overlap
     ethr =  1.20E-06,  avg # of iterations =  2.0

     negative rho (up, down):  1.867E-04 0.000E+00

     total cpu time spent up to now is       19.2 secs

     total energy              =    -399.11235864 Ry
     estimated scf accuracy    <       0.00034047 Ry

     iteration # 12     ecut=    58.00 Ry     beta= 0.70
     Davidson diagonalization with overlap
     ethr =  9.46E-07,  avg # of iterations =  2.0

     negative rho (up, down):  1.869E-04 0.000E+00

     total cpu time spent up to now is       19.5 secs

     total energy              =    -399.11239002 Ry
     estimated scf accuracy    <       0.00002743 Ry

     iteration # 13     ecut=    58.00 Ry     beta= 0.70
     Davidson diagonalization with overlap
     ethr =  7.62E-08,  avg # of iterations = 16.0

     negative rho (up, down):  1.870E-04 0.000E+00

     total cpu time spent up to now is       19.9 secs

     total energy              =    -399.11240943 Ry
     estimated scf accuracy    <       0.00002959 Ry

     iteration # 14     ecut=    58.00 Ry     beta= 0.70
     Davidson diagonalization with overlap
     ethr =  7.62E-08,  avg # of iterations =  1.0

     negative rho (up, down):  1.868E-04 0.000E+00

     total cpu time spent up to now is       20.2 secs

     total energy              =    -399.11241130 Ry
     estimated scf accuracy    <       0.00000973 Ry

     iteration # 15     ecut=    58.00 Ry     beta= 0.70
     Davidson diagonalization with overlap
     ethr =  2.70E-08,  avg # of iterations =  2.0

     negative rho (up, down):  1.868E-04 0.000E+00

     total cpu time spent up to now is       20.5 secs

     total energy              =    -399.11240890 Ry
     estimated scf accuracy    <       0.00001413 Ry

     iteration # 16     ecut=    58.00 Ry     beta= 0.70
     Davidson diagonalization with overlap
     ethr =  2.70E-08,  avg # of iterations =  2.0

     negative rho (up, down):  1.868E-04 0.000E+00

     total cpu time spent up to now is       20.8 secs

     total energy              =    -399.11241026 Ry
     estimated scf accuracy    <       0.00000035 Ry

     iteration # 17     ecut=    58.00 Ry     beta= 0.70
     Davidson diagonalization with overlap
     ethr =  9.64E-10,  avg # of iterations =  8.0

     negative rho (up, down):  1.869E-04 0.000E+00

     total cpu time spent up to now is       21.2 secs

     total energy              =    -399.11241069 Ry
     estimated scf accuracy    <       0.00000037 Ry

     iteration # 18     ecut=    58.00 Ry     beta= 0.70
     Davidson diagonalization with overlap
     ethr =  9.64E-10,  avg # of iterations =  1.0

     negative rho (up, down):  1.869E-04 0.000E+00

     total cpu time spent up to now is       21.5 secs

     total energy              =    -399.11241069 Ry
     estimated scf accuracy    <       0.00000008 Ry

     iteration # 19     ecut=    58.00 Ry     beta= 0.70
     Davidson diagonalization with overlap
     ethr =  2.29E-10,  avg # of iterations =  2.0

     negative rho (up, down):  1.869E-04 0.000E+00

     total cpu time spent up to now is       21.8 secs

     total energy              =    -399.11241070 Ry
     estimated scf accuracy    <       0.00000002 Ry

     iteration # 20     ecut=    58.00 Ry     beta= 0.70
     Davidson diagonalization with overlap
     ethr =  6.65E-11,  avg # of iterations =  5.0

     negative rho (up, down):  1.869E-04 0.000E+00

     total cpu time spent up to now is       22.1 secs

     End of self-consistent calculation

          k = 0.0000 0.0000 0.0000 ( 15943 PWs)   bands (ev):

   -22.0171 -18.9151 -11.6467  -8.7135  -7.8504  -7.3400  -6.8211  -6.1909
    -5.9032  -5.7084  -5.5437  -5.4440  -5.4132  -4.5791  -4.3945  -3.5532
    -2.6214  -2.2290  -2.1784  -1.9691  -1.7476  -1.0834

     the Fermi energy is    -2.2040 ev

!    total energy              =    -399.11241071 Ry
     total all-electron energy =     -4185.948433 Ry
     estimated scf accuracy    <          1.7E-09 Ry
     smearing contrib. (-TS)   =      -0.00612492 Ry
     internal energy E=F+TS    =    -399.10628579 Ry

     The total energy is F=E-TS. E is the sum of the following terms:
     one-electron contribution =    -646.49825969 Ry
     hartree contribution      =     331.93165450 Ry
     xc contribution           =     -34.69373572 Ry
     ewald contribution        =     246.78891169 Ry
     one-center paw contrib.   =    -296.63485657 Ry

     convergence has been achieved in  20 iterations

     negative rho (up, down):  1.869E-04 0.000E+00

     Forces acting on atoms (cartesian axes, Ry/au):

     atom    1 type  1   force =    -0.01634661    0.02834308    0.02897557
     atom    2 type  1   force =     0.01933589    0.01116358    0.04271676
     atom    3 type  1   force =    -0.02168460   -0.01251961    0.02362178
     atom    4 type  1   force =     0.01637253   -0.02832812    0.02897557
     atom    5 type  1   force =    -0.02465707   -0.01423577    0.07403930
     atom    6 type  1   force =    -0.00146273    0.00050595    0.01682169
     atom    7 type  1   force =    -0.00029320   -0.00151973    0.01682169
     atom    8 type  1   force =    -0.01001408   -0.00578163   -0.01007977
     atom    9 type  2   force =    -0.00118385   -0.00068349   -0.10450240
     atom   10 type  2   force =     0.03993371    0.02305574   -0.11739019
     The non-local contrib.  to forces
     atom    1 type  1   force =     0.01675347   -0.00703240   -0.08808694
     atom    2 type  1   force =    -0.02647131   -0.01528322   -0.04152120
     atom    3 type  1   force =     0.01226581    0.00708167   -0.05826108
     atom    4 type  1   force =     0.00228649    0.01802513   -0.08808694
     atom    5 type  1   force =     0.02902440    0.01675724    0.09786419
     atom    6 type  1   force =    -0.05070900    0.02219405    0.07692859
     atom    7 type  1   force =    -0.00613389   -0.05501231    0.07692859
     atom    8 type  1   force =     0.01169679    0.00675315    0.01003941
     atom    9 type  2   force =     0.56021206    0.32343858   -1.19129407
     atom   10 type  2   force =    -0.44307599   -0.25581004   -1.09675794
     The ionic contribution  to forces
     atom    1 type  1   force =    -0.02445524    0.12005210   -6.45171157
     atom    2 type  1   force =     0.02406030    0.01389122   -6.36724346
     atom    3 type  1   force =    -0.09404406   -0.05429636   -6.40737407
     atom    4 type  1   force =     0.09174055   -0.08120491   -6.45171157
     atom    5 type  1   force =    -0.64360374   -0.37158479   -1.99855112
     atom    6 type  1   force =     0.92813255   -0.59794082    0.23138023
     atom    7 type  1   force =    -0.05376567    1.10275677    0.23138023
     atom    8 type  1   force =     0.02993862    0.01728507    0.99593928
     atom    9 type  2   force =    -4.54032570   -2.62135827   14.46173803
     atom   10 type  2   force =     4.28232240    2.47239999   11.75615401
     The local contribution  to forces
     atom    1 type  1   force =    -0.00678334   -0.08536093    6.55940609
     atom    2 type  1   force =     0.01898573    0.01095356    6.44724597
     atom    3 type  1   force =     0.06116477    0.03531549    6.48297624
     atom    4 type  1   force =    -0.07731143    0.03680801    6.55940982
     atom    5 type  1   force =     0.59306252    0.34240812    1.98252758
     atom    6 type  1   force =    -0.88358818    0.57812243   -0.28364447
     atom    7 type  1   force =     0.05886930   -1.05427516   -0.28364737
     atom    8 type  1   force =    -0.05043521   -0.02912584   -1.01462826
     atom    9 type  2   force =     3.98519285    2.30085361  -13.38594357
     atom   10 type  2   force =    -3.80436756   -2.19644984  -10.78678228
     The core correction contribution to forces
     atom    1 type  1   force =    -0.00186582    0.00067935    0.00935552
     atom    2 type  1   force =     0.00276390    0.00159529    0.00422648
     atom    3 type  1   force =    -0.00107079   -0.00061838    0.00627089
     atom    4 type  1   force =    -0.00034437   -0.00195556    0.00935594
     atom    5 type  1   force =    -0.00314328   -0.00181495   -0.00779683
     atom    6 type  1   force =     0.00470349   -0.00186323   -0.00784040
     atom    7 type  1   force =     0.00073805    0.00500482   -0.00784073
     atom    8 type  1   force =    -0.00121790   -0.00070340   -0.00143164
     atom    9 type  2   force =    -0.00626034   -0.00361459    0.01101558
     atom   10 type  2   force =     0.00503703    0.00290811    0.00999853
     The Hubbard contrib.    to forces
     atom    1 type  1   force =     0.00000000    0.00000000    0.00000000
     atom    2 type  1   force =     0.00000000    0.00000000    0.00000000
     atom    3 type  1   force =     0.00000000    0.00000000    0.00000000
     atom    4 type  1   force =     0.00000000    0.00000000    0.00000000
     atom    5 type  1   force =     0.00000000    0.00000000    0.00000000
     atom    6 type  1   force =     0.00000000    0.00000000    0.00000000
     atom    7 type  1   force =     0.00000000    0.00000000    0.00000000
     atom    8 type  1   force =     0.00000000    0.00000000    0.00000000
     atom    9 type  2   force =     0.00000000    0.00000000    0.00000000
     atom   10 type  2   force =     0.00000000    0.00000000    0.00000000
     The SCF correction term to forces
     atom    1 type  1   force =     0.00000248    0.00000342    0.00001210
     atom    2 type  1   force =    -0.00000254    0.00000291    0.00001051
     atom    3 type  1   force =    -0.00000082   -0.00000463    0.00001133
     atom    4 type  1   force =     0.00000054   -0.00000170    0.00001176
     atom    5 type  1   force =     0.00000177   -0.00000270   -0.00000297
     atom    6 type  1   force =    -0.00000138   -0.00000696    0.00000189
     atom    7 type  1   force =    -0.00000371    0.00000398   -0.00000009
     atom    8 type  1   force =     0.00000373    0.00000574    0.00000300
     atom    9 type  2   force =     0.00000508   -0.00001982   -0.00001682
     atom   10 type  2   force =     0.00001906    0.00000191   -0.00000096

     Total force =     0.203116     Total SCF correction =     0.000043
     Energy error            =      1.1E-01 Ry
     Gradient error          =      1.2E-01 Ry/Bohr

     number of scf cycles    =   2
     number of bfgs steps    =   1

     energy             old  =    -398.9981402832 Ry
     energy             new  =    -399.1124107063 Ry

     CASE: energy            _new < energy            _old

     new trust radius        =       0.1217854953 bohr
     new conv_thr            =       0.0000000100 Ry


ATOMIC_POSITIONS (angstrom)
Al           -0.0184804963        1.6785832068       10.0439889392
Al            2.8836472687        1.6648745268       10.0476336522
Al            1.4136417179        4.1229775791       10.0403018942
Al            4.3082379151        4.1049205464       10.0439889392
Al           -0.0365158422       -0.0210824313       12.0963501832
Al            2.8730004116       -0.0043392324       12.3451944000
Al            1.4327423203        2.4902609577       12.3451944000
Al            4.2874645644        2.4753688204       12.3169557645
O            -0.0344227335       -0.0198739744       14.0251226206
O             1.5052708887        0.8690685528       13.7248807479



     Writing config-only to output data dir ./Al.save/
     NEW-OLD atomic charge density approx. for the potential

     negative rho (up, down):  2.208E-04 0.000E+00

     total cpu time spent up to now is       24.1 secs

     Self-consistent Calculation

     iteration #  1     ecut=    58.00 Ry     beta= 0.70
     Davidson diagonalization with overlap
     c_bands:  3 eigenvalues not converged
     ethr =  1.00E-06,  avg # of iterations = 20.0

     negative rho (up, down):  1.578E-04 0.000E+00

     total cpu time spent up to now is       24.6 secs

     total energy              =    -398.92767183 Ry
     estimated scf accuracy    <       0.26729266 Ry

     iteration #  2     ecut=    58.00 Ry     beta= 0.70
     Davidson diagonalization with overlap
     ethr =  7.42E-04,  avg # of iterations = 10.0

     negative rho (up, down):  1.535E-03 0.000E+00

     total cpu time spent up to now is       25.0 secs

     total energy              =    -397.55074412 Ry
     estimated scf accuracy    <      36.97831653 Ry

     iteration #  3     ecut=    58.00 Ry     beta= 0.70
     Davidson diagonalization with overlap
     ethr =  7.42E-04,  avg # of iterations = 16.0

     negative rho (up, down):  6.618E-04 0.000E+00

     total cpu time spent up to now is       25.4 secs

     total energy              =    -399.11240259 Ry
     estimated scf accuracy    <       0.44392949 Ry

     iteration #  4     ecut=    58.00 Ry     beta= 0.70
     Davidson diagonalization with overlap
     ethr =  7.42E-04,  avg # of iterations =  2.0

     negative rho (up, down):  3.700E-04 0.000E+00

     total cpu time spent up to now is       25.7 secs

     total energy              =    -399.12230333 Ry
     estimated scf accuracy    <       0.27791982 Ry

     iteration #  5     ecut=    58.00 Ry     beta= 0.70
     Davidson diagonalization with overlap
     ethr =  7.42E-04,  avg # of iterations =  1.0

     negative rho (up, down):  2.817E-04 0.000E+00

     total cpu time spent up to now is       26.0 secs

     total energy              =    -399.12309756 Ry
     estimated scf accuracy    <       0.17279398 Ry

     iteration #  6     ecut=    58.00 Ry     beta= 0.70
     Davidson diagonalization with overlap
     ethr =  4.80E-04,  avg # of iterations =  2.0

     negative rho (up, down):  2.521E-04 0.000E+00

     total cpu time spent up to now is       26.3 secs

     total energy              =    -399.12421720 Ry
     estimated scf accuracy    <       0.11982387 Ry

     iteration #  7     ecut=    58.00 Ry     beta= 0.70
     Davidson diagonalization with overlap
     ethr =  3.33E-04,  avg # of iterations =  2.0

     negative rho (up, down):  2.381E-04 0.000E+00

     total cpu time spent up to now is       26.6 secs

     total energy              =    -399.12628039 Ry
     estimated scf accuracy    <       0.08010900 Ry

     iteration #  8     ecut=    58.00 Ry     beta= 0.70
     Davidson diagonalization with overlap
     ethr =  2.23E-04,  avg # of iterations =  2.0

     negative rho (up, down):  2.344E-04 0.000E+00

     total cpu time spent up to now is       26.9 secs

     total energy              =    -399.12612809 Ry
     estimated scf accuracy    <       0.05363463 Ry

     iteration #  9     ecut=    58.00 Ry     beta= 0.70
     Davidson diagonalization with overlap
     ethr =  1.49E-04,  avg # of iterations = 10.0

     negative rho (up, down):  2.101E-04 0.000E+00

     total cpu time spent up to now is       27.3 secs

     total energy              =    -399.15304863 Ry
     estimated scf accuracy    <       0.36526507 Ry

     iteration # 10     ecut=    58.00 Ry     beta= 0.70
     Davidson diagonalization with overlap
     ethr =  1.49E-04,  avg # of iterations =  1.0

     negative rho (up, down):  2.400E-04 0.000E+00

     total cpu time spent up to now is       27.6 secs

     total energy              =    -399.15054586 Ry
     estimated scf accuracy    <       0.26282923 Ry

     iteration # 11     ecut=    58.00 Ry     beta= 0.70
     Davidson diagonalization with overlap
     ethr =  1.49E-04,  avg # of iterations =  1.0

     negative rho (up, down):  2.315E-04 0.000E+00

     total cpu time spent up to now is       27.9 secs

     total energy              =    -399.15110662 Ry
     estimated scf accuracy    <       0.16962471 Ry

     iteration # 12     ecut=    58.00 Ry     beta= 0.70
     Davidson diagonalization with overlap
     ethr =  1.49E-04,  avg # of iterations =  1.0

     negative rho (up, down):  2.307E-04 0.000E+00

     total cpu time spent up to now is       28.2 secs

     total energy              =    -399.15143759 Ry
     estimated scf accuracy    <       0.17481464 Ry

     iteration # 13     ecut=    58.00 Ry     beta= 0.70
     Davidson diagonalization with overlap
     ethr =  1.49E-04,  avg # of iterations =  1.0

     negative rho (up, down):  2.320E-04 0.000E+00

     total cpu time spent up to now is       28.5 secs

     total energy              =    -399.15093043 Ry
     estimated scf accuracy    <       0.18343940 Ry

     iteration # 14     ecut=    58.00 Ry     beta= 0.70
     Davidson diagonalization with overlap
     ethr =  1.49E-04,  avg # of iterations =  1.0

     negative rho (up, down):  2.337E-04 0.000E+00

     total cpu time spent up to now is       28.8 secs

     total energy              =    -399.15109732 Ry
     estimated scf accuracy    <       0.16612576 Ry

     iteration # 15     ecut=    58.00 Ry     beta= 0.70
     Davidson diagonalization with overlap
     ethr =  1.49E-04,  avg # of iterations =  1.0

     negative rho (up, down):  2.380E-04 0.000E+00

     total cpu time spent up to now is       29.1 secs

     total energy              =    -399.14817117 Ry
     estimated scf accuracy    <       0.17165310 Ry

     iteration # 16     ecut=    58.00 Ry     beta= 0.70
     Davidson diagonalization with overlap
     ethr =  1.49E-04,  avg # of iterations =  1.0

     negative rho (up, down):  2.165E-04 0.000E+00

     total cpu time spent up to now is       29.4 secs

     total energy              =    -399.14757270 Ry
     estimated scf accuracy    <       0.08868430 Ry

     iteration # 17     ecut=    58.00 Ry     beta= 0.70
     Davidson diagonalization with overlap
     ethr =  1.49E-04,  avg # of iterations =  1.0

     negative rho (up, down):  2.033E-04 0.000E+00

     total cpu time spent up to now is       29.7 secs

     total energy              =    -399.14413232 Ry
     estimated scf accuracy    <       0.05848931 Ry

     iteration # 18     ecut=    58.00 Ry     beta= 0.70
     Davidson diagonalization with overlap
     ethr =  1.49E-04,  avg # of iterations =  1.0

     negative rho (up, down):  1.772E-04 0.000E+00

     total cpu time spent up to now is       30.0 secs

     total energy              =    -399.14587719 Ry
     estimated scf accuracy    <       0.00029064 Ry

     iteration # 19     ecut=    58.00 Ry     beta= 0.70
     Davidson diagonalization with overlap
     ethr =  8.07E-07,  avg # of iterations = 11.0

     negative rho (up, down):  1.759E-04 0.000E+00

     total cpu time spent up to now is       30.4 secs

     total energy              =    -399.14608786 Ry
     estimated scf accuracy    <       0.00114690 Ry

     iteration # 20     ecut=    58.00 Ry     beta= 0.70
     Davidson diagonalization with overlap
     ethr =  8.07E-07,  avg # of iterations =  2.0

     negative rho (up, down):  1.782E-04 0.000E+00

     total cpu time spent up to now is       30.7 secs

     total energy              =    -399.14600588 Ry
     estimated scf accuracy    <       0.00061939 Ry

     iteration # 21     ecut=    58.00 Ry     beta= 0.70
     Davidson diagonalization with overlap
     ethr =  8.07E-07,  avg # of iterations =  3.0

     negative rho (up, down):  1.786E-04 0.000E+00

     total cpu time spent up to now is       31.0 secs

     total energy              =    -399.14602888 Ry
     estimated scf accuracy    <       0.00024852 Ry

     iteration # 22     ecut=    58.00 Ry     beta= 0.70
     Davidson diagonalization with overlap
     ethr =  6.90E-07,  avg # of iterations =  2.0

     negative rho (up, down):  1.795E-04 0.000E+00

     total cpu time spent up to now is       31.3 secs

     total energy              =    -399.14604845 Ry
     estimated scf accuracy    <       0.00024490 Ry

     iteration # 23     ecut=    58.00 Ry     beta= 0.70
     Davidson diagonalization with overlap
     ethr =  6.80E-07,  avg # of iterations =  1.0

     negative rho (up, down):  1.801E-04 0.000E+00

     total cpu time spent up to now is       31.6 secs

     total energy              =    -399.14606243 Ry
     estimated scf accuracy    <       0.00010080 Ry

     iteration # 24     ecut=    58.00 Ry     beta= 0.70
     Davidson diagonalization with overlap
     ethr =  2.80E-07,  avg # of iterations =  2.0

     negative rho (up, down):  1.804E-04 0.000E+00

     total cpu time spent up to now is       32.0 secs

     total energy              =    -399.14606873 Ry
     estimated scf accuracy    <       0.00008043 Ry

     iteration # 25     ecut=    58.00 Ry     beta= 0.70
     Davidson diagonalization with overlap
     ethr =  2.23E-07,  avg # of iterations =  1.0

     negative rho (up, down):  1.804E-04 0.000E+00

     total cpu time spent up to now is       32.3 secs

     total energy              =    -399.14606807 Ry
     estimated scf accuracy    <       0.00006333 Ry

     iteration # 26     ecut=    58.00 Ry     beta= 0.70
     Davidson diagonalization with overlap
     ethr =  1.76E-07,  avg # of iterations =  1.0

     negative rho (up, down):  1.804E-04 0.000E+00

     total cpu time spent up to now is       32.6 secs

     total energy              =    -399.14606587 Ry
     estimated scf accuracy    <       0.00004395 Ry

     iteration # 27     ecut=    58.00 Ry     beta= 0.70
     Davidson diagonalization with overlap
     ethr =  1.22E-07,  avg # of iterations =  1.0

     negative rho (up, down):  1.804E-04 0.000E+00

     total cpu time spent up to now is       32.9 secs

     total energy              =    -399.14606323 Ry
     estimated scf accuracy    <       0.00002262 Ry

     iteration # 28     ecut=    58.00 Ry     beta= 0.70
     Davidson diagonalization with overlap
     ethr =  6.28E-08,  avg # of iterations =  2.0

     negative rho (up, down):  1.803E-04 0.000E+00

     total cpu time spent up to now is       33.2 secs

     total energy              =    -399.14606517 Ry
     estimated scf accuracy    <       0.00000174 Ry

     iteration # 29     ecut=    58.00 Ry     beta= 0.70
     Davidson diagonalization with overlap
     ethr =  4.83E-09,  avg # of iterations =  9.0

     negative rho (up, down):  1.801E-04 0.000E+00

     total cpu time spent up to now is       33.5 secs

     total energy              =    -399.14606615 Ry
     estimated scf accuracy    <       0.00000870 Ry

     iteration # 30     ecut=    58.00 Ry     beta= 0.70
     Davidson diagonalization with overlap
     ethr =  4.83E-09,  avg # of iterations =  2.0

     negative rho (up, down):  1.801E-04 0.000E+00

     total cpu time spent up to now is       33.9 secs

     total energy              =    -399.14606616 Ry
     estimated scf accuracy    <       0.00000147 Ry

     iteration # 31     ecut=    58.00 Ry     beta= 0.70
     Davidson diagonalization with overlap
     ethr =  4.08E-09,  avg # of iterations =  1.0

     negative rho (up, down):  1.801E-04 0.000E+00

     total cpu time spent up to now is       34.2 secs

     total energy              =    -399.14606609 Ry
     estimated scf accuracy    <       0.00000083 Ry

     iteration # 32     ecut=    58.00 Ry     beta= 0.70
     Davidson diagonalization with overlap
     ethr =  2.31E-09,  avg # of iterations =  2.0

     negative rho (up, down):  1.801E-04 0.000E+00

     total cpu time spent up to now is       34.5 secs

     total energy              =    -399.14606618 Ry
     estimated scf accuracy    <       0.00000003 Ry

     iteration # 33     ecut=    58.00 Ry     beta= 0.70
     Davidson diagonalization with overlap
     ethr =  6.98E-11,  avg # of iterations = 16.0

     negative rho (up, down):  1.801E-04 0.000E+00

     total cpu time spent up to now is       34.9 secs

     total energy              =    -399.14606625 Ry
     estimated scf accuracy    <       0.00000037 Ry

     iteration # 34     ecut=    58.00 Ry     beta= 0.70
     Davidson diagonalization with overlap
     ethr =  6.98E-11,  avg # of iterations =  2.0

     negative rho (up, down):  1.801E-04 0.000E+00

     total cpu time spent up to now is       35.2 secs

     total energy              =    -399.14606623 Ry
     estimated scf accuracy    <       0.00000017 Ry

     iteration # 35     ecut=    58.00 Ry     beta= 0.70
     Davidson diagonalization with overlap
     ethr =  6.98E-11,  avg # of iterations =  5.0

     negative rho (up, down):  1.801E-04 0.000E+00

     total cpu time spent up to now is       35.5 secs

     End of self-consistent calculation

          k = 0.0000 0.0000 0.0000 ( 15943 PWs)   bands (ev):

   -21.8845 -19.0069 -11.6714  -8.6671  -7.8126  -7.4317  -6.8024  -6.2041
    -5.9960  -5.7990  -5.5835  -5.4301  -5.4072  -4.5578  -4.4478  -3.5509
    -2.7224  -2.2475  -2.1730  -2.0350  -1.7037  -1.0155

     the Fermi energy is    -2.2186 ev

!    total energy              =    -399.14606623 Ry
     total all-electron energy =     -4185.982088 Ry
     estimated scf accuracy    <          9.4E-09 Ry
     smearing contrib. (-TS)   =      -0.00891038 Ry
     internal energy E=F+TS    =    -399.13715585 Ry

     The total energy is F=E-TS. E is the sum of the following terms:
     one-electron contribution =    -652.25734931 Ry
     hartree contribution      =     334.82523993 Ry
     xc contribution           =     -34.75016950 Ry
     ewald contribution        =     249.68178639 Ry
     one-center paw contrib.   =    -296.63666336 Ry

     convergence has been achieved in  35 iterations

     negative rho (up, down):  1.801E-04 0.000E+00

     Forces acting on atoms (cartesian axes, Ry/au):

     atom    1 type  1   force =    -0.00979127    0.02067758    0.02881540
     atom    2 type  1   force =     0.01014692    0.00585833    0.03924954
     atom    3 type  1   force =    -0.01725930   -0.00996466    0.02368549
     atom    4 type  1   force =     0.01301168   -0.01881828    0.02881540
     atom    5 type  1   force =    -0.01999356   -0.01154329    0.06422181
     atom    6 type  1   force =    -0.00541665    0.00123377    0.01837206
     atom    7 type  1   force =    -0.00163985   -0.00530784    0.01837206
     atom    8 type  1   force =    -0.00576414   -0.00332793   -0.00581273
     atom    9 type  2   force =    -0.02568245   -0.01482777   -0.09495487
     atom   10 type  2   force =     0.06238862    0.03602008   -0.12076416
     The non-local contrib.  to forces
     atom    1 type  1   force =     0.01783599   -0.01733862   -0.09647026
     atom    2 type  1   force =    -0.02680467   -0.01547568   -0.04921211
     atom    3 type  1   force =     0.01006932    0.00581353   -0.06006221
     atom    4 type  1   force =    -0.00609769    0.02411573   -0.09647026
     atom    5 type  1   force =     0.03740622    0.02159649    0.06759500
     atom    6 type  1   force =    -0.04482673    0.02028684    0.07305033
     atom    7 type  1   force =    -0.00484445   -0.04896451    0.07305033
     atom    8 type  1   force =     0.01110179    0.00640962    0.01204077
     atom    9 type  2   force =     0.41873631    0.24175752   -1.19706252
     atom   10 type  2   force =    -0.29258999   -0.16892691   -1.14778166
     The ionic contribution  to forces
     atom    1 type  1   force =    -0.00361894    0.08109970   -6.47608156
     atom    2 type  1   force =     0.00281339    0.00162431   -6.39125187
     atom    3 type  1   force =    -0.07128500   -0.04115641   -6.43866954
     atom    4 type  1   force =     0.06842493   -0.04368395   -6.47608156
     atom    5 type  1   force =    -0.67818491   -0.39155024   -2.08452571
     atom    6 type  1   force =     0.98989370   -0.66700719    0.23683808
     atom    7 type  1   force =    -0.08269832    1.19077668    0.23683808
     atom    8 type  1   force =     0.04774948    0.02756817    1.02011542
     atom    9 type  2   force =    -4.30802584   -2.48723988   14.64780049
     atom   10 type  2   force =     4.03493153    2.32956880   11.72501817
     The local contribution  to forces
     atom    1 type  1   force =    -0.02195806   -0.04493027    6.59108413
     atom    2 type  1   force =     0.03126795    0.01806018    6.47460061
     atom    3 type  1   force =     0.04488507    0.02590336    6.51588296
     atom    4 type  1   force =    -0.04989214    0.00344930    6.59109527
     atom    5 type  1   force =     0.62481766    0.36074395    2.08481038
     atom    6 type  1   force =    -0.95432024    0.64941671   -0.28434909
     atom    7 type  1   force =     0.08525054   -1.15117410   -0.28435142
     atom    8 type  1   force =    -0.06344203   -0.03663638   -1.03627881
     atom    9 type  2   force =     3.86823625    2.23333072  -13.55638537
     atom   10 type  2   force =    -3.68338149   -2.12658634  -10.70840896
     The core correction contribution to forces
     atom    1 type  1   force =    -0.00204526    0.00184582    0.01022409
     atom    2 type  1   force =     0.00286244    0.00165294    0.00506106
     atom    3 type  1   force =    -0.00092405   -0.00053408    0.00648111
     atom    4 type  1   force =     0.00057603   -0.00269394    0.01022539
     atom    5 type  1   force =    -0.00402872   -0.00232586   -0.00371638
     atom    6 type  1   force =     0.00383035   -0.00145752   -0.00722128
     atom    7 type  1   force =     0.00065321    0.00404609   -0.00722127
     atom    8 type  1   force =    -0.00117037   -0.00067617   -0.00174654
     atom    9 type  2   force =    -0.00459608   -0.00265357    0.01065010
     atom   10 type  2   force =     0.00341503    0.00197166    0.01034876
     The Hubbard contrib.    to forces
     atom    1 type  1   force =     0.00000000    0.00000000    0.00000000
     atom    2 type  1   force =     0.00000000    0.00000000    0.00000000
     atom    3 type  1   force =     0.00000000    0.00000000    0.00000000
     atom    4 type  1   force =     0.00000000    0.00000000    0.00000000
     atom    5 type  1   force =     0.00000000    0.00000000    0.00000000
     atom    6 type  1   force =     0.00000000    0.00000000    0.00000000
     atom    7 type  1   force =     0.00000000    0.00000000    0.00000000
     atom    8 type  1   force =     0.00000000    0.00000000    0.00000000
     atom    9 type  2   force =     0.00000000    0.00000000    0.00000000
     atom   10 type  2   force =     0.00000000    0.00000000    0.00000000
     The SCF correction term to forces
     atom    1 type  1   force =    -0.00000597    0.00000150    0.00004434
     atom    2 type  1   force =     0.00000602   -0.00000001    0.00004362
     atom    3 type  1   force =    -0.00000114    0.00000318    0.00004493
     atom    4 type  1   force =     0.00000085   -0.00000415    0.00004474
     atom    5 type  1   force =    -0.00000464   -0.00000587    0.00005028
     atom    6 type  1   force =     0.00000525   -0.00000553    0.00004608
     atom    7 type  1   force =     0.00000034    0.00000882    0.00004780
     atom    8 type  1   force =    -0.00000053    0.00000286    0.00004819
     atom    9 type  2   force =    -0.00003056   -0.00002663    0.00003419
     atom   10 type  2   force =     0.00001453   -0.00000852    0.00005129

     Total force =     0.201210     Total SCF correction =     0.000152
     Energy error            =      3.4E-02 Ry
     Gradient error          =      1.2E-01 Ry/Bohr

     number of scf cycles    =   3
     number of bfgs steps    =   2

     energy             old  =    -399.1124107063 Ry
     energy             new  =    -399.1460662306 Ry

     CASE: energy            _new < energy            _old


     WARNING: bfgs curvature condition failed, Theta= 0.813
     new trust radius        =       0.1339640448 bohr
     new conv_thr            =       0.0000000100 Ry


ATOMIC_POSITIONS (angstrom)
Al           -0.0270247990        1.6932747658       10.0607826375
Al            2.8935108769        1.6705692837       10.0710489388
Al            1.4023459777        4.1164559804       10.0542861387
Al            4.3166890271        4.0901751837       10.0607826375
Al           -0.0503753670       -0.0290842317       12.1163473490
Al            2.8725400367       -0.0043047435       12.3539168392
Al            1.4325420011        2.4898450169       12.3539168392
Al            4.2824440287        2.4724702128       12.3110860659
O            -0.0391714579       -0.0226156518       13.9868825164
O             1.5310856904        0.8839727355       13.6605615791



     Writing config-only to output data dir ./Al.save/
     NEW-OLD atomic charge density approx. for the potential

     negative rho (up, down):  2.131E-04 0.000E+00

     total cpu time spent up to now is       37.5 secs

     Self-consistent Calculation

     iteration #  1     ecut=    58.00 Ry     beta= 0.70
     Davidson diagonalization with overlap
     c_bands:  3 eigenvalues not converged
     ethr =  1.00E-06,  avg # of iterations = 20.0

     negative rho (up, down):  1.509E-04 0.000E+00

     total cpu time spent up to now is       38.0 secs

     total energy              =    -398.87581877 Ry
     estimated scf accuracy    <       0.37599678 Ry

     iteration #  2     ecut=    58.00 Ry     beta= 0.70
     Davidson diagonalization with overlap
     ethr =  1.04E-03,  avg # of iterations =  9.0

     negative rho (up, down):  1.653E-03 0.000E+00

     total cpu time spent up to now is       38.4 secs

     total energy              =    -397.03860351 Ry
     estimated scf accuracy    <      49.71090599 Ry

     iteration #  3     ecut=    58.00 Ry     beta= 0.70
     Davidson diagonalization with overlap
     ethr =  1.04E-03,  avg # of iterations = 17.0

     negative rho (up, down):  7.370E-04 0.000E+00

     total cpu time spent up to now is       38.8 secs

     total energy              =    -399.13864114 Ry
     estimated scf accuracy    <       0.64955421 Ry

     iteration #  4     ecut=    58.00 Ry     beta= 0.70
     Davidson diagonalization with overlap
     ethr =  1.04E-03,  avg # of iterations =  2.0

     negative rho (up, down):  4.136E-04 0.000E+00

     total cpu time spent up to now is       39.1 secs

     total energy              =    -399.15385484 Ry
     estimated scf accuracy    <       0.35318003 Ry

     iteration #  5     ecut=    58.00 Ry     beta= 0.70
     Davidson diagonalization with overlap
     ethr =  9.81E-04,  avg # of iterations =  1.0

     negative rho (up, down):  3.047E-04 0.000E+00

     total cpu time spent up to now is       39.4 secs

     total energy              =    -399.15521005 Ry
     estimated scf accuracy    <       0.22575372 Ry

     iteration #  6     ecut=    58.00 Ry     beta= 0.70
     Davidson diagonalization with overlap
     ethr =  6.27E-04,  avg # of iterations =  2.0

     negative rho (up, down):  2.617E-04 0.000E+00

     total cpu time spent up to now is       39.7 secs

     total energy              =    -399.15761695 Ry
     estimated scf accuracy    <       0.14084340 Ry

     iteration #  7     ecut=    58.00 Ry     beta= 0.70
     Davidson diagonalization with overlap
     ethr =  3.91E-04,  avg # of iterations =  2.0

     negative rho (up, down):  2.394E-04 0.000E+00

     total cpu time spent up to now is       40.0 secs

     total energy              =    -399.15894645 Ry
     estimated scf accuracy    <       0.10094025 Ry

     iteration #  8     ecut=    58.00 Ry     beta= 0.70
     Davidson diagonalization with overlap
     ethr =  2.80E-04,  avg # of iterations =  2.0

     negative rho (up, down):  2.259E-04 0.000E+00

     total cpu time spent up to now is       40.3 secs

     total energy              =    -399.16066655 Ry
     estimated scf accuracy    <       0.05742370 Ry

     iteration #  9     ecut=    58.00 Ry     beta= 0.70
     Davidson diagonalization with overlap
     ethr =  1.60E-04,  avg # of iterations = 10.0

     negative rho (up, down):  2.044E-04 0.000E+00

     total cpu time spent up to now is       40.7 secs

     total energy              =    -399.18962360 Ry
     estimated scf accuracy    <       0.31780606 Ry

     iteration # 10     ecut=    58.00 Ry     beta= 0.70
     Davidson diagonalization with overlap
     ethr =  1.60E-04,  avg # of iterations =  1.0

     negative rho (up, down):  2.466E-04 0.000E+00

     total cpu time spent up to now is       41.0 secs

     total energy              =    -399.18648229 Ry
     estimated scf accuracy    <       0.28070117 Ry

     iteration # 11     ecut=    58.00 Ry     beta= 0.70
     Davidson diagonalization with overlap
     ethr =  1.60E-04,  avg # of iterations =  1.0

     negative rho (up, down):  2.431E-04 0.000E+00

     total cpu time spent up to now is       41.3 secs

     total energy              =    -399.18820656 Ry
     estimated scf accuracy    <       0.18334290 Ry

     iteration # 12     ecut=    58.00 Ry     beta= 0.70
     Davidson diagonalization with overlap
     ethr =  1.60E-04,  avg # of iterations =  1.0

     negative rho (up, down):  2.495E-04 0.000E+00

     total cpu time spent up to now is       41.6 secs

     total energy              =    -399.18807917 Ry
     estimated scf accuracy    <       0.21674920 Ry

     iteration # 13     ecut=    58.00 Ry     beta= 0.70
     Davidson diagonalization with overlap
     ethr =  1.60E-04,  avg # of iterations =  1.0

     negative rho (up, down):  2.475E-04 0.000E+00

     total cpu time spent up to now is       41.9 secs

     total energy              =    -399.18747602 Ry
     estimated scf accuracy    <       0.20825159 Ry

     iteration # 14     ecut=    58.00 Ry     beta= 0.70
     Davidson diagonalization with overlap
     ethr =  1.60E-04,  avg # of iterations =  1.0

     negative rho (up, down):  2.459E-04 0.000E+00

     total cpu time spent up to now is       42.2 secs

     total energy              =    -399.18819466 Ry
     estimated scf accuracy    <       0.18932844 Ry

     iteration # 15     ecut=    58.00 Ry     beta= 0.70
     Davidson diagonalization with overlap
     ethr =  1.60E-04,  avg # of iterations =  1.0

     negative rho (up, down):  2.513E-04 0.000E+00

     total cpu time spent up to now is       42.5 secs

     total energy              =    -399.18813896 Ry
     estimated scf accuracy    <       0.21206342 Ry

     iteration # 16     ecut=    58.00 Ry     beta= 0.70
     Davidson diagonalization with overlap
     ethr =  1.60E-04,  avg # of iterations =  1.0

     negative rho (up, down):  2.525E-04 0.000E+00

     total cpu time spent up to now is       42.8 secs

     total energy              =    -399.18728499 Ry
     estimated scf accuracy    <       0.20842155 Ry

     iteration # 17     ecut=    58.00 Ry     beta= 0.70
     Davidson diagonalization with overlap
     ethr =  1.60E-04,  avg # of iterations =  1.0

     negative rho (up, down):  2.432E-04 0.000E+00

     total cpu time spent up to now is       43.1 secs

     total energy              =    -399.17379978 Ry
     estimated scf accuracy    <       0.18542194 Ry

     iteration # 18     ecut=    58.00 Ry     beta= 0.70
     Davidson diagonalization with overlap
     ethr =  1.60E-04,  avg # of iterations =  1.0

     negative rho (up, down):  1.736E-04 0.000E+00

     total cpu time spent up to now is       43.4 secs

     total energy              =    -399.18137057 Ry
     estimated scf accuracy    <       0.00859028 Ry

     iteration # 19     ecut=    58.00 Ry     beta= 0.70
     Davidson diagonalization with overlap
     ethr =  2.39E-05,  avg # of iterations =  2.0

     negative rho (up, down):  1.744E-04 0.000E+00

     total cpu time spent up to now is       43.7 secs

     total energy              =    -399.18147026 Ry
     estimated scf accuracy    <       0.00227184 Ry

     iteration # 20     ecut=    58.00 Ry     beta= 0.70
     Davidson diagonalization with overlap
     ethr =  6.31E-06,  avg # of iterations = 10.0

     negative rho (up, down):  1.734E-04 0.000E+00

     total cpu time spent up to now is       44.1 secs

     total energy              =    -399.18180728 Ry
     estimated scf accuracy    <       0.00076494 Ry

     iteration # 21     ecut=    58.00 Ry     beta= 0.70
     Davidson diagonalization with overlap
     ethr =  2.12E-06,  avg # of iterations =  2.0

     negative rho (up, down):  1.722E-04 0.000E+00

     total cpu time spent up to now is       44.4 secs

     total energy              =    -399.18186375 Ry
     estimated scf accuracy    <       0.00033402 Ry

     iteration # 22     ecut=    58.00 Ry     beta= 0.70
     Davidson diagonalization with overlap
     ethr =  9.28E-07,  avg # of iterations =  1.0

     negative rho (up, down):  1.717E-04 0.000E+00

     total cpu time spent up to now is       44.7 secs

     total energy              =    -399.18186439 Ry
     estimated scf accuracy    <       0.00014514 Ry

     iteration # 23     ecut=    58.00 Ry     beta= 0.70
     Davidson diagonalization with overlap
     ethr =  4.03E-07,  avg # of iterations =  2.0

     negative rho (up, down):  1.717E-04 0.000E+00

     total cpu time spent up to now is       45.0 secs

     total energy              =    -399.18185905 Ry
     estimated scf accuracy    <       0.00020646 Ry

     iteration # 24     ecut=    58.00 Ry     beta= 0.70
     Davidson diagonalization with overlap
     ethr =  4.03E-07,  avg # of iterations =  1.0

     negative rho (up, down):  1.717E-04 0.000E+00

     total cpu time spent up to now is       45.3 secs

     total energy              =    -399.18185592 Ry
     estimated scf accuracy    <       0.00005906 Ry

     iteration # 25     ecut=    58.00 Ry     beta= 0.70
     Davidson diagonalization with overlap
     ethr =  1.64E-07,  avg # of iterations =  1.0

     negative rho (up, down):  1.717E-04 0.000E+00

     total cpu time spent up to now is       45.6 secs

     total energy              =    -399.18185694 Ry
     estimated scf accuracy    <       0.00001105 Ry

     iteration # 26     ecut=    58.00 Ry     beta= 0.70
     Davidson diagonalization with overlap
     ethr =  3.07E-08,  avg # of iterations =  5.0

     negative rho (up, down):  1.717E-04 0.000E+00

     total cpu time spent up to now is       46.0 secs

     total energy              =    -399.18186067 Ry
     estimated scf accuracy    <       0.00000511 Ry

     iteration # 27     ecut=    58.00 Ry     beta= 0.70
     Davidson diagonalization with overlap
     ethr =  1.42E-08,  avg # of iterations =  2.0

     negative rho (up, down):  1.717E-04 0.000E+00

     total cpu time spent up to now is       46.3 secs

     total energy              =    -399.18186128 Ry
     estimated scf accuracy    <       0.00000131 Ry

     iteration # 28     ecut=    58.00 Ry     beta= 0.70
     Davidson diagonalization with overlap
     ethr =  3.64E-09,  avg # of iterations =  8.0

     negative rho (up, down):  1.718E-04 0.000E+00

     total cpu time spent up to now is       46.6 secs

     total energy              =    -399.18186140 Ry
     estimated scf accuracy    <       0.00000126 Ry

     iteration # 29     ecut=    58.00 Ry     beta= 0.70
     Davidson diagonalization with overlap
     ethr =  3.49E-09,  avg # of iterations =  1.0

     negative rho (up, down):  1.718E-04 0.000E+00

     total cpu time spent up to now is       46.9 secs

     total energy              =    -399.18186146 Ry
     estimated scf accuracy    <       0.00000010 Ry

     iteration # 30     ecut=    58.00 Ry     beta= 0.70
     Davidson diagonalization with overlap
     ethr =  2.69E-10,  avg # of iterations =  8.0

     negative rho (up, down):  1.718E-04 0.000E+00

     total cpu time spent up to now is       47.3 secs

     total energy              =    -399.18186148 Ry
     estimated scf accuracy    <       0.00000022 Ry

     iteration # 31     ecut=    58.00 Ry     beta= 0.70
     Davidson diagonalization with overlap
     ethr =  2.69E-10,  avg # of iterations =  2.0

     negative rho (up, down):  1.718E-04 0.000E+00

     total cpu time spent up to now is       47.6 secs

     End of self-consistent calculation

          k = 0.0000 0.0000 0.0000 ( 15943 PWs)   bands (ev):

   -21.7300 -19.0952 -11.7042  -8.6083  -7.7590  -7.5300  -6.7738  -6.2355
    -6.1031  -5.9151  -5.6187  -5.4070  -5.3782  -4.5260  -4.5006  -3.5532
    -2.8319  -2.2685  -2.1704  -2.1035  -1.6595  -0.9582

     the Fermi energy is    -2.2409 ev

!    total energy              =    -399.18186150 Ry
     total all-electron energy =     -4186.017883 Ry
     estimated scf accuracy    <          3.8E-09 Ry
     smearing contrib. (-TS)   =      -0.01127055 Ry
     internal energy E=F+TS    =    -399.17059095 Ry

     The total energy is F=E-TS. E is the sum of the following terms:
     one-electron contribution =    -658.44693432 Ry
     hartree contribution      =     337.94448296 Ry
     xc contribution           =     -34.81979931 Ry
     ewald contribution        =     252.79104339 Ry
     one-center paw contrib.   =    -296.63938367 Ry

     convergence has been achieved in  31 iterations

     negative rho (up, down):  1.718E-04 0.000E+00

     Forces acting on atoms (cartesian axes, Ry/au):

     atom    1 type  1   force =    -0.00229048    0.01346177    0.02811354
     atom    2 type  1   force =     0.00045407    0.00026216    0.03539711
     atom    3 type  1   force =    -0.01415212   -0.00817073    0.02327551
     atom    4 type  1   force =     0.01051300   -0.00871450    0.02811354
     atom    5 type  1   force =    -0.01320595   -0.00762446    0.05046550
     atom    6 type  1   force =    -0.00939377    0.00210241    0.01958143
     atom    7 type  1   force =    -0.00287614   -0.00918644    0.01958143
     atom    8 type  1   force =    -0.00057865   -0.00033408   -0.00060702
     atom    9 type  2   force =    -0.05267172   -0.03041003   -0.08070020
     atom   10 type  2   force =     0.08420176    0.04861391   -0.12322084
     The non-local contrib.  to forces
     atom    1 type  1   force =     0.01763380   -0.02794772   -0.10715724
     atom    2 type  1   force =    -0.02881350   -0.01663548   -0.05664974
     atom    3 type  1   force =     0.00891500    0.00514708   -0.06326369
     atom    4 type  1   force =    -0.01538654    0.02924518   -0.10715724
     atom    5 type  1   force =     0.04533023    0.02617142    0.02990965
     atom    6 type  1   force =    -0.03376304    0.01897380    0.06759860
     atom    7 type  1   force =    -0.00044973   -0.03872655    0.06759860
     atom    8 type  1   force =     0.01436056    0.00829107    0.01461678
     atom    9 type  2   force =     0.25667776    0.14819297   -1.19496495
     atom   10 type  2   force =    -0.12027501   -0.06944081   -1.20194082
     The ionic contribution  to forces
     atom    1 type  1   force =     0.01703873    0.04113667   -6.50218132
     atom    2 type  1   force =    -0.01789332   -0.01033071   -6.41819635
     atom    3 type  1   force =    -0.04755144   -0.02745384   -6.47172863
     atom    4 type  1   force =     0.04414476   -0.00581236   -6.50218132
     atom    5 type  1   force =    -0.71263291   -0.41143880   -2.17804867
     atom    6 type  1   force =     1.06278525   -0.75221992    0.24514838
     atom    7 type  1   force =    -0.12004893    1.29650898    0.24514838
     atom    8 type  1   force =     0.06898155    0.03982651    1.04898413
     atom    9 type  2   force =    -4.03812162   -2.33141061   14.84767755
     atom   10 type  2   force =     3.74329794    2.16119407   11.68537786
     The local contribution  to forces
     atom    1 type  1   force =    -0.03485089   -0.00278499    6.62610177
     atom    2 type  1   force =     0.04402233    0.02543686    6.50435192
     atom    3 type  1   force =     0.02538948    0.01463475    6.55141301
     atom    4 type  1   force =    -0.01985049   -0.02879277    6.62611436
     atom    5 type  1   force =     0.65895336    0.38043999    2.19730284
     atom    6 type  1   force =    -1.04074128    0.73638272   -0.28680061
     atom    7 type  1   force =     0.11736604   -1.26949351   -0.28679743
     atom    8 type  1   force =    -0.08242190   -0.04758039   -1.06207498
     atom    9 type  2   force =     3.73151472    2.15436584  -13.74355722
     atom   10 type  2   force =    -3.54046632   -2.04408131  -10.61737680
     The core correction contribution to forces
     atom    1 type  1   force =    -0.00210023    0.00305623    0.01133094
     atom    2 type  1   force =     0.00312749    0.00180631    0.00588073
     atom    3 type  1   force =    -0.00088708   -0.00051313    0.00684220
[...]
     atom    5 type  1   force =    -0.00186610   -0.00107740    0.07755590
     atom    6 type  1   force =     0.00852621    0.00125357    0.04958423
     atom    7 type  1   force =     0.00534873    0.00675713    0.04958423
     atom    8 type  1   force =    -0.00750354   -0.00433217    0.01182483
     atom    9 type  2   force =    -0.19705318   -0.11376870   -1.13787279
     atom   10 type  2   force =     0.18712536    0.10803687   -1.13427259
     The ionic contribution  to forces
     atom    1 type  1   force =    -0.17842936   -0.12549872   -6.74718317
     atom    2 type  1   force =     0.18741093    0.10820175   -6.61497193
     atom    3 type  1   force =     0.18103262    0.10451923   -7.04784433
     atom    4 type  1   force =    -0.19789976   -0.09177500   -6.74718317
     atom    5 type  1   force =    -0.03776122   -0.02180145   -1.41065071
     atom    6 type  1   force =     0.05988389   -0.00267618    0.93027681
     atom    7 type  1   force =     0.02762431    0.05319906    0.93027681
     atom    8 type  1   force =    -0.03100038   -0.01789808    1.67857596
     atom    9 type  2   force =    -0.13707502   -0.07914030   12.66345615
     atom   10 type  2   force =     0.12621399    0.07286968   12.36524757
     The local contribution  to forces
     atom    1 type  1   force =     0.20776740    0.19889939    6.89834792
     atom    2 type  1   force =    -0.17641007   -0.10185052    6.65049585
     atom    3 type  1   force =    -0.20074728   -0.11590136    7.17348892
     atom    4 type  1   force =     0.27613576    0.08048213    6.89834782
     atom    5 type  1   force =     0.03865763    0.02231896    1.33607327
     atom    6 type  1   force =    -0.06667524    0.00092832   -0.97670076
     atom    7 type  1   force =    -0.03253352   -0.05820656   -0.97670066
     atom    8 type  1   force =     0.03755392    0.02168191   -1.68728319
     atom    9 type  2   force =     0.33254363    0.19199440  -11.53543867
     atom   10 type  2   force =    -0.31164938   -0.17993026  -11.23913276
     The core correction contribution to forces
     atom    1 type  1   force =     0.00329037    0.00919835    0.01801501
     atom    2 type  1   force =     0.00111453    0.00064347    0.00480945
     atom    3 type  1   force =    -0.00298266   -0.00172204    0.01428585
     atom    4 type  1   force =     0.00961120   -0.00174964    0.01801499
     atom    5 type  1   force =     0.00022481    0.00012979   -0.00304948
     atom    6 type  1   force =    -0.00116468   -0.00001188   -0.00315197
     atom    7 type  1   force =    -0.00059261   -0.00100270   -0.00315197
     atom    8 type  1   force =     0.00081181    0.00046871   -0.00285929
     atom    9 type  2   force =     0.00205560    0.00118680    0.00863992
     atom   10 type  2   force =    -0.00183997   -0.00106229    0.00873292
     The Hubbard contrib.    to forces
     atom    1 type  1   force =     0.00000000    0.00000000    0.00000000
     atom    2 type  1   force =     0.00000000    0.00000000    0.00000000
     atom    3 type  1   force =     0.00000000    0.00000000    0.00000000
     atom    4 type  1   force =     0.00000000    0.00000000    0.00000000
     atom    5 type  1   force =     0.00000000    0.00000000    0.00000000
     atom    6 type  1   force =     0.00000000    0.00000000    0.00000000
     atom    7 type  1   force =     0.00000000    0.00000000    0.00000000
     atom    8 type  1   force =     0.00000000    0.00000000    0.00000000
     atom    9 type  2   force =     0.00000000    0.00000000    0.00000000
     atom   10 type  2   force =     0.00000000    0.00000000    0.00000000
     The SCF correction term to forces
     atom    1 type  1   force =     0.00000007    0.00000026   -0.00000317
     atom    2 type  1   force =    -0.00000006    0.00000001   -0.00000327
     atom    3 type  1   force =    -0.00000022   -0.00000018   -0.00000305
     atom    4 type  1   force =     0.00000022   -0.00000010   -0.00000318
     atom    5 type  1   force =    -0.00000010   -0.00000002   -0.00000265
     atom    6 type  1   force =     0.00000009    0.00000001   -0.00000248
     atom    7 type  1   force =     0.00000001    0.00000006   -0.00000251
     atom    8 type  1   force =    -0.00000001   -0.00000004   -0.00000286
     atom    9 type  2   force =     0.00000043    0.00000016   -0.00000371
     atom   10 type  2   force =     0.00000028    0.00000015   -0.00000310

     Total force =     0.002353     Total SCF correction =     0.000010
     Energy error            =      1.1E-05 Ry
     Gradient error          =      1.2E-03 Ry/Bohr

     number of scf cycles    =  37
     number of bfgs steps    =  36

     energy             old  =    -399.7177397400 Ry
     energy             new  =    -399.7177504727 Ry

     CASE: energy            _new < energy            _old

     new trust radius        =       0.0049065493 bohr
     new conv_thr            =            1.0E-10 Ry


ATOMIC_POSITIONS (angstrom)
Al            0.1829450555        1.8691987990       10.2648432353
Al            2.9666644538        1.7128045210       10.2900477795
Al            1.4667378959        4.1536326718       10.1943105524
Al            4.5740286362        4.1840523951       10.2648432353
Al            0.1300976481        0.0751119121       12.1752558075
Al            3.0062762891        0.0809371297       12.5037068563
Al            1.5732317550        2.5630430723       12.5037068563
Al            4.4295798045        2.5574190926       12.3223029051
O            -1.1518107848       -0.6649982666       13.2716888251
O             1.4368352614        0.8295572250       13.2389054881



     Writing config-only to output data dir ./Al.save/
     NEW-OLD atomic charge density approx. for the potential

     negative rho (up, down):  1.537E-04 0.000E+00

     total cpu time spent up to now is      270.0 secs

     Self-consistent Calculation

     iteration #  1     ecut=    58.00 Ry     beta= 0.70
     Davidson diagonalization with overlap
     ethr =  1.00E-06,  avg # of iterations =  2.0

     Threshold (ethr) on eigenvalues was too large:
     Diagonalizing with lowered threshold

     Davidson diagonalization with overlap
     ethr =  2.92E-09,  avg # of iterations =  8.0

     negative rho (up, down):  1.533E-04 0.000E+00

     total cpu time spent up to now is      270.5 secs

     total energy              =    -399.71775588 Ry
     estimated scf accuracy    <       0.00000254 Ry

     iteration #  2     ecut=    58.00 Ry     beta= 0.70
     Davidson diagonalization with overlap
     ethr =  7.04E-09,  avg # of iterations =  2.0

     negative rho (up, down):  1.532E-04 0.000E+00

     total cpu time spent up to now is      270.8 secs

     total energy              =    -399.71775581 Ry
     estimated scf accuracy    <       0.00000140 Ry

     iteration #  3     ecut=    58.00 Ry     beta= 0.70
     Davidson diagonalization with overlap
     ethr =  3.88E-09,  avg # of iterations =  4.0

     negative rho (up, down):  1.531E-04 0.000E+00

     total cpu time spent up to now is      271.2 secs

     total energy              =    -399.71775555 Ry
     estimated scf accuracy    <       0.00000820 Ry

     iteration #  4     ecut=    58.00 Ry     beta= 0.70
     Davidson diagonalization with overlap
     ethr =  3.88E-09,  avg # of iterations =  5.0

     negative rho (up, down):  1.531E-04 0.000E+00

     total cpu time spent up to now is      271.5 secs

     total energy              =    -399.71775640 Ry
     estimated scf accuracy    <       0.00000005 Ry

     iteration #  5     ecut=    58.00 Ry     beta= 0.70
     Davidson diagonalization with overlap
     ethr =  1.29E-10,  avg # of iterations = 10.0

     negative rho (up, down):  1.531E-04 0.000E+00

     total cpu time spent up to now is      271.8 secs

     total energy              =    -399.71775648 Ry
     estimated scf accuracy    <       0.00000013 Ry

     iteration #  6     ecut=    58.00 Ry     beta= 0.70
     Davidson diagonalization with overlap
     ethr =  1.29E-10,  avg # of iterations =  2.0

     negative rho (up, down):  1.531E-04 0.000E+00

     total cpu time spent up to now is      272.2 secs

     total energy              =    -399.71775648 Ry
     estimated scf accuracy    <       0.00000003 Ry

     iteration #  7     ecut=    58.00 Ry     beta= 0.70
     Davidson diagonalization with overlap
     ethr =  7.75E-11,  avg # of iterations =  2.0

     negative rho (up, down):  1.531E-04 0.000E+00

     total cpu time spent up to now is      272.5 secs

     total energy              =    -399.71775649 Ry
     estimated scf accuracy    <          1.2E-09 Ry

     iteration #  8     ecut=    58.00 Ry     beta= 0.70
     Davidson diagonalization with overlap
     ethr =  3.29E-12,  avg # of iterations =  8.0

     negative rho (up, down):  1.531E-04 0.000E+00

     total cpu time spent up to now is      272.8 secs

     total energy              =    -399.71775649 Ry
     estimated scf accuracy    <          5.6E-09 Ry

     iteration #  9     ecut=    58.00 Ry     beta= 0.70
     Davidson diagonalization with overlap
     ethr =  3.29E-12,  avg # of iterations =  2.0

     negative rho (up, down):  1.531E-04 0.000E+00

     total cpu time spent up to now is      273.1 secs

     total energy              =    -399.71775649 Ry
     estimated scf accuracy    <          1.8E-09 Ry

     iteration # 10     ecut=    58.00 Ry     beta= 0.70
     Davidson diagonalization with overlap
     ethr =  3.29E-12,  avg # of iterations =  5.0

     negative rho (up, down):  1.531E-04 0.000E+00

     total cpu time spent up to now is      273.4 secs

     End of self-consistent calculation

          k = 0.0000 0.0000 0.0000 ( 15943 PWs)   bands (ev):

   -21.8872 -21.4810 -11.1255  -8.9368  -8.6846  -8.0409  -7.5476  -7.3893
    -7.0105  -6.5996  -5.1342  -5.0784  -4.8475  -4.7998  -4.4067  -3.6328
    -2.9102  -1.7823  -1.2623  -0.4127  -0.1521   0.5033

     the Fermi energy is    -1.5223 ev

!    total energy              =    -399.71775649 Ry
     total all-electron energy =     -4186.553778 Ry
     estimated scf accuracy    <          7.7E-11 Ry
     smearing contrib. (-TS)   =       0.00374095 Ry
     internal energy E=F+TS    =    -399.72149744 Ry

     The total energy is F=E-TS. E is the sum of the following terms:
     one-electron contribution =    -723.59717387 Ry
     hartree contribution      =     370.61190295 Ry
     xc contribution           =     -35.61078972 Ry
     ewald contribution        =     285.52729775 Ry
     one-center paw contrib.   =    -296.65273455 Ry

     convergence has been achieved in  10 iterations

     negative rho (up, down):  1.531E-04 0.000E+00

     Forces acting on atoms (cartesian axes, Ry/au):

     atom    1 type  1   force =     0.00017486    0.00036565   -0.00031473
     atom    2 type  1   force =    -0.00002775   -0.00001602    0.00001084
     atom    3 type  1   force =    -0.00042277   -0.00024409    0.00049440
     atom    4 type  1   force =     0.00040409   -0.00003139   -0.00031473
     atom    5 type  1   force =    -0.00035711   -0.00020618    0.00035156
     atom    6 type  1   force =     0.00021452   -0.00030261   -0.00003124
     atom    7 type  1   force =    -0.00015481    0.00033708   -0.00003124
     atom    8 type  1   force =     0.00002902    0.00001675    0.00025394
     atom    9 type  2   force =     0.00023541    0.00013592   -0.00071472
     atom   10 type  2   force =    -0.00009544   -0.00005511    0.00029590
     The non-local contrib.  to forces
     atom    1 type  1   force =    -0.03247859   -0.08230906   -0.16962391
     atom    2 type  1   force =    -0.01211095   -0.00699226   -0.04005702
     atom    3 type  1   force =     0.02221416    0.01282535   -0.13938809
     atom    4 type  1   force =    -0.08752103    0.01302724   -0.16962391
     atom    5 type  1   force =    -0.00150590   -0.00086943    0.07826853
     atom    6 type  1   force =     0.00827658    0.00140847    0.04952368
     atom    7 type  1   force =     0.00535806    0.00646349    0.04952368
     atom    8 type  1   force =    -0.00718830   -0.00415017    0.01185222
     atom    9 type  2   force =    -0.19962101   -0.11525125   -1.13694006
     atom   10 type  2   force =     0.18927952    0.10928058   -1.13368022
     The ionic contribution  to forces
     atom    1 type  1   force =    -0.17906636   -0.12551391   -6.74689711
     atom    2 type  1   force =     0.18771897    0.10837960   -6.61459753
     atom    3 type  1   force =     0.18145723    0.10476438   -7.04942252
     atom    4 type  1   force =    -0.19823141   -0.09231906   -6.74689711
     atom    5 type  1   force =    -0.03423502   -0.01976560   -1.42380207
     atom    6 type  1   force =     0.05645031   -0.00189654    0.93852114
     atom    7 type  1   force =     0.02658270    0.04983567    0.93852114
     atom    8 type  1   force =    -0.03011189   -0.01738511    1.68178084
     atom    9 type  2   force =    -0.13684555   -0.07900782   12.65818111
     atom   10 type  2   force =     0.12628102    0.07290838   12.36461211
     The local contribution  to forces
     atom    1 type  1   force =     0.20841264    0.19898382    6.89815351
     atom    2 type  1   force =    -0.17674799   -0.10204339    6.64987768
     atom    3 type  1   force =    -0.20109601   -0.11610460    7.17500175
     atom    4 type  1   force =     0.27652982    0.08099781    6.89815470
     atom    5 type  1   force =     0.03521393    0.02033051    1.34900115
     atom    6 type  1   force =    -0.06338762    0.00021866   -0.98492572
     atom    7 type  1   force =    -0.03150405   -0.05500475   -0.98492625
     atom    8 type  1   force =     0.03655038    0.02110265   -1.69052169
     atom    9 type  2   force =     0.33462747    0.19319523  -11.53059020
     atom   10 type  2   force =    -0.31380079   -0.18117308  -11.23937514
     The core correction contribution to forces
     atom    1 type  1   force =     0.00330853    0.00920566    0.01804927
     atom    2 type  1   force =     0.00111110    0.00064158    0.00478451
     atom    3 type  1   force =    -0.00299768   -0.00173075    0.01430071
     atom    4 type  1   force =     0.00962655   -0.00173758    0.01804939
     atom    5 type  1   force =     0.00017012    0.00009820   -0.00311862
     atom    6 type  1   force =    -0.00112452   -0.00003340   -0.00315286
     atom    7 type  1   force =    -0.00059116   -0.00095718   -0.00315285
     atom    8 type  1   force =     0.00077891    0.00044971   -0.00286062
     atom    9 type  2   force =     0.00207795    0.00119968    0.00862765
     atom   10 type  2   force =    -0.00185765   -0.00107253    0.00873204
     The Hubbard contrib.    to forces
     atom    1 type  1   force =     0.00000000    0.00000000    0.00000000
     atom    2 type  1   force =     0.00000000    0.00000000    0.00000000
     atom    3 type  1   force =     0.00000000    0.00000000    0.00000000
     atom    4 type  1   force =     0.00000000    0.00000000    0.00000000
     atom    5 type  1   force =     0.00000000    0.00000000    0.00000000
     atom    6 type  1   force =     0.00000000    0.00000000    0.00000000
     atom    7 type  1   force =     0.00000000    0.00000000    0.00000000
     atom    8 type  1   force =     0.00000000    0.00000000    0.00000000
     atom    9 type  2   force =     0.00000000    0.00000000    0.00000000
     atom   10 type  2   force =     0.00000000    0.00000000    0.00000000
     The SCF correction term to forces
     atom    1 type  1   force =    -0.00000083   -0.00000051    0.00000424
     atom    2 type  1   force =     0.00000081   -0.00000061    0.00000452
     atom    3 type  1   force =     0.00000002    0.00000110    0.00000389
     atom    4 type  1   force =    -0.00000003    0.00000012    0.00000416
     atom    5 type  1   force =    -0.00000003    0.00000019    0.00000389
     atom    6 type  1   force =    -0.00000002    0.00000014    0.00000389
     atom    7 type  1   force =    -0.00000006   -0.00000016    0.00000433
     atom    8 type  1   force =     0.00000008   -0.00000017    0.00000453
     atom    9 type  2   force =    -0.00000293   -0.00000037    0.00000811
     atom   10 type  2   force =     0.00000305    0.00000094    0.00000844

     Total force =     0.001527     Total SCF correction =     0.000017
     Energy error            =      6.0E-06 Ry
     Gradient error          =      7.1E-04 Ry/Bohr

     bfgs converged in  38 scf cycles and  37 bfgs steps
     (criteria: energy <  1.0E-04 Ry, force <  1.0E-03 Ry/Bohr)

     End of BFGS Geometry Optimization

     Final energy             =    -399.7177564904 Ry

     File ./Al.bfgs deleted, as requested
Begin final coordinates

ATOMIC_POSITIONS (angstrom)
Al            0.1829450555        1.8691987990       10.2648432353
Al            2.9666644538        1.7128045210       10.2900477795
Al            1.4667378959        4.1536326718       10.1943105524
Al            4.5740286362        4.1840523951       10.2648432353
Al            0.1300976481        0.0751119121       12.1752558075
Al            3.0062762891        0.0809371297       12.5037068563
Al            1.5732317550        2.5630430723       12.5037068563
Al            4.4295798045        2.5574190926       12.3223029051
O            -1.1518107848       -0.6649982666       13.2716888251
O             1.4368352614        0.8295572250       13.2389054881
End final coordinates



     Writing all to output data dir ./Al.save/

     init_run     :      0.86s CPU      1.49s WALL (       1 calls)
     electrons    :    198.22s CPU    214.35s WALL (      38 calls)
     update_pot   :     23.46s CPU     23.60s WALL (      37 calls)
     forces       :     16.66s CPU     16.77s WALL (      38 calls)

     Called by init_run:
     wfcinit      :      0.02s CPU      0.04s WALL (       1 calls)
     potinit      :      0.40s CPU      0.72s WALL (       1 calls)
     hinit0       :      0.34s CPU      0.62s WALL (       1 calls)

     Called by electrons:
     c_bands      :     34.00s CPU     34.54s WALL (     610 calls)
     sum_band     :     38.28s CPU     38.68s WALL (     610 calls)
     v_of_rho     :     19.76s CPU     20.11s WALL (     639 calls)
     newd         :     28.72s CPU     28.97s WALL (     639 calls)
     PAW_pot      :     83.94s CPU     84.69s WALL (     676 calls)
     mix_rho      :      2.96s CPU      3.00s WALL (     610 calls)

     Called by c_bands:
     init_us_2    :      1.37s CPU      1.50s WALL (    1258 calls)
     init_us_2:cp :      1.37s CPU      1.50s WALL (    1258 calls)
     regterg      :     29.22s CPU     29.67s WALL (     614 calls)

     Called by *egterg:
     rdiaghg      :      1.62s CPU      1.66s WALL (    3300 calls)
     h_psi        :     22.06s CPU     22.41s WALL (    3351 calls)
     s_psi        :      1.83s CPU      1.85s WALL (    3351 calls)
     g_psi        :      0.16s CPU      0.16s WALL (    2736 calls)

     Called by h_psi:
     h_psi:calbec :      3.21s CPU      3.27s WALL (    3351 calls)
     vloc_psi     :     16.49s CPU     16.75s WALL (    3351 calls)
     add_vuspsi   :      2.16s CPU      2.19s WALL (    3351 calls)

     General routines
     calbec       :      4.07s CPU      4.15s WALL (    4150 calls)
     fft          :     15.65s CPU     16.15s WALL (    7341 calls)
     ffts         :      0.81s CPU      0.83s WALL (    1249 calls)
     fftw         :     14.44s CPU     14.66s WALL (   51912 calls)
     interpolate  :      1.29s CPU      1.32s WALL (     639 calls)

     Parallel routines

     PWSCF        :   4m 6.40s CPU   4m36.32s WALL


   This run was terminated on:  16:37:53  19Jan2025            

=------------------------------------------------------------------------------=
   JOB DONE.
=------------------------------------------------------------------------------=
