20
Lattice="19.9999996430165 0.0 0.0 0.0 19.9999996430165 0.0 0.0 0.0 19.9999996430165" Properties=species:S:1:pos:R:3:forces:R:3 energy=-3529.7336222318536 free_energy=-3529.7336222318536 stress="6.427103306396162e-06 2.7544728455983548e-06 9.181576151994517e-07 2.7544728455983548e-06 3.856261983837697e-05 5.5089456911967096e-06 9.181576151994517e-07 5.5089456911967096e-06 4.590788075997259e-06" pbc="T T T"
N        9.55759560       9.93246771       9.58876111      -0.00263101       0.00848438      -0.00817842
N       11.67005416       9.60161817       9.95070058      -0.01064128      -0.00626861       0.00689596
C        8.13447928       9.64166247       9.35396233      -0.00158611       0.00683168       0.00018255
C       10.51920566       8.98986611       9.61992205      -0.01978747       0.00022806       0.02158930
C       10.10974574      11.16615056       9.90345428       0.00773156       0.00043529      -0.00353604
C       11.44131945      10.95685383      10.12705972       0.00467169      -0.00634908       0.00179180
C        7.38146206       9.35731043      10.64828166       0.00572919      -0.00758373       0.01383999
C       12.93615399       8.87869852      10.10672350      -0.00593591       0.00257445      -0.00980979
H        7.70828566      10.50416659       8.82478372       0.00525611      -0.01108428      -0.03395862
H        8.09800969       8.77335956       8.68462146      -0.00565926       0.01969054      -0.01691323
H       10.44942344       7.85122119       9.51740531       0.00378029       0.00270840       0.00447706
H        9.52414593      12.07712197       9.92861489      -0.00424669      -0.01546107       0.01006870
H       12.23113452      11.64997619      10.38824201       0.00298119      -0.00306501      -0.00481773
H        7.80953479       8.48688458      11.16049488       0.01072921      -0.01570661       0.01206850
H        6.33081017       9.13470721      10.42073370      -0.00287989       0.01790928       0.00048182
H        7.41281380      10.21960392      11.32746580      -0.01386879      -0.00331929       0.00839697
H       12.70616261       7.80325543      10.01601224       0.00359106       0.00442667       0.01549321
H       13.63863652       9.18915335       9.32446327       0.01953267       0.00319074      -0.00716284
H       13.35864537       9.09413049      11.09539078      -0.00157146      -0.00061629      -0.00946577
Cl      10.90943158       5.99519172       9.76975672       0.00480462       0.00297400      -0.00144342
