
     Program PWSCF v.7.3.1 starts on  8Aug2025 at  9:26: 3 

     This program is part of the open-source Quantum ESPRESSO suite
     for quantum simulation of materials; please cite
         "P. Giannozzi et al., J. Phys.:Condens. Matter 21 395502 (2009);
         "P. Giannozzi et al., J. Phys.:Condens. Matter 29 465901 (2017);
         "P. Giannozzi et al., J. Chem. Phys. 152 154105 (2020);
          URL http://www.quantum-espresso.org", 
     in publications or presentations arising from this work. More details at
     http://www.quantum-espresso.org/quote

     Parallel version (MPI), running on     8 processors

     MPI processes distributed on     1 nodes
     455400 MiB available memory on the printing compute node when the environment starts
 
     Reading input from pw.in
Warning: card &CELL ignored
Warning: card / ignored

     Current dimensions of program PWSCF are:
     Max number of different atomic species (ntypx) = 10
     Max number of k-points (npk) =  40000
     Max angular momentum in pseudopotentials (lmaxx) =  4
     file C.pbe-n-kjpaw_psl.1.0.0.UPF: wavefunction(s)  2S 2P renormalized
     file Al.pbe-n-kjpaw_psl.1.0.0.UPF: wavefunction(s)  3S 3P renormalized
     file Cl.pbe-n-kjpaw_psl.1.0.0.UPF: wavefunction(s)  3S 3P renormalized
 
     R & G space division:  proc/nbgrp/npool/nimage =       8
     Subspace diagonalization in iterative solution of the eigenvalue problem:
     one sub-group per band group will be used
     scalapack distributed-memory algorithm (size of sub-group:  2*  2 procs)

 
     Parallelization info
     --------------------
     sticks:   dense  smooth     PW     G-vecs:    dense   smooth      PW
     Min       28973   16104   4030              3672643  1521664  190243
     Max       28975   16106   4032              3672644  1521665  190244
     Sum      231789  128845  32249             29381147 12173313 1521951
 
     Using Slab Decomposition
 


     bravais-lattice index     =            0
     lattice parameter (alat)  =      94.4863  a.u.
     unit-cell volume          =  295239.6341 (a.u.)^3
     number of atoms/cell      =          197
     number of atomic types    =            3
     number of electrons       =       799.00
     number of Kohn-Sham states=          480
     kinetic-energy cutoff     =      45.3312  Ry
     charge density cutoff     =     326.2606  Ry
     scf convergence threshold =      1.0E-04
     mixing beta               =       0.1000
     number of iterations used =            8  plain     mixing
     energy convergence thresh.=      1.0E-04
     force convergence thresh. =      1.0E-03
     Exchange-correlation= SLA  PW   PBX  PBC
                           (   1   4   3   4   0   0   0)
     nstep                     =          200


     celldm(1)=  94.486306  celldm(2)=   0.000000  celldm(3)=   0.000000
     celldm(4)=   0.000000  celldm(5)=   0.000000  celldm(6)=   0.000000

     crystal axes: (cart. coord. in units of alat)
               a(1) = (   1.000000   0.000000   0.000000 )  
               a(2) = (   0.000000   1.000000   0.000000 )  
               a(3) = (   0.000000   0.000000   0.350000 )  

     reciprocal axes: (cart. coord. in units 2 pi/alat)
               b(1) = (  1.000000  0.000000  0.000000 )  
               b(2) = (  0.000000  1.000000  0.000000 )  
               b(3) = (  0.000000  0.000000  2.857143 )  


     PseudoPot. # 1 for C  read from file:
     /home/elmer.barquero/carbon_nn/pseudo/C.pbe-n-kjpaw_psl.1.0.0.UPF
     MD5 check sum: 5f16ad9a65e90284d1d834d4ab3b0f7d
     Pseudo is Projector augmented-wave + core cor, Zval =  4.0
     Generated using &quot;atomic&quot; code by A. Dal Corso  v.6.3
     Shape of augmentation charge: PSQ
     Using radial grid of 1073 points,  4 beta functions with: 
                l(1) =   0
                l(2) =   0
                l(3) =   1
                l(4) =   1
     Q(r) pseudized with 0 coefficients 


     PseudoPot. # 2 for Al read from file:
     /home/elmer.barquero/carbon_nn/pseudo/Al.pbe-n-kjpaw_psl.1.0.0.UPF
     MD5 check sum: 502b6b27b9c6270cab5dd1084b96fa6d
     Pseudo is Projector augmented-wave + core cor, Zval =  3.0
     Generated using &quot;atomic&quot; code by A. Dal Corso  v.6.3
     Shape of augmentation charge: PSQ
     Using radial grid of 1135 points,  6 beta functions with: 
                l(1) =   0
                l(2) =   0
                l(3) =   1
                l(4) =   1
                l(5) =   2
                l(6) =   2
     Q(r) pseudized with 0 coefficients 


     PseudoPot. # 3 for Cl read from file:
     /home/elmer.barquero/carbon_nn/pseudo/Cl.pbe-n-kjpaw_psl.1.0.0.UPF
     MD5 check sum: 530da96d25dcb7781b0586ca00827062
     Pseudo is Projector augmented-wave + core cor, Zval =  7.0
     Generated using &quot;atomic&quot; code by A. Dal Corso  v.6.3
     Shape of augmentation charge: PSQ
     Using radial grid of 1157 points,  6 beta functions with: 
                l(1) =   0
                l(2) =   0
                l(3) =   1
                l(4) =   1
                l(5) =   2
                l(6) =   2
     Q(r) pseudized with 0 coefficients 


     atomic species   valence    mass     pseudopotential
     C                 4.00    12.01100     C ( 1.00)
     Al                3.00    26.98154     Al( 1.00)
     Cl                7.00    35.45000     Cl( 1.00)

     No symmetry found



   Cartesian axes

     site n.     atom                  positions (alat units)
         1        C      tau(   1) = (   0.6166860   0.4384695   0.0187519  )
         2        C      tau(   2) = (   0.6003894   0.5132267   0.1430859  )
         3        C      tau(   3) = (   0.5446482   0.5775385   0.0003594  )
         4        C      tau(   4) = (   0.4636858   0.6013250   0.0003423  )
         5        C      tau(   5) = (   0.3833236   0.5760316   0.0002793  )
         6        C      tau(   6) = (   0.3381571   0.5054522   0.0002625  )
         7        C      tau(   7) = (   0.3502194   0.4222491   0.0002434  )
         8        C      tau(   8) = (   0.4072388   0.3596472   0.0002361  )
         9        C      tau(   9) = (   0.4861825   0.3283813   0.0002169  )
        10        C      tau(  10) = (   0.5710002   0.3324763   0.0001877  )
        11        C      tau(  11) = (   0.6449573   0.3736088   0.0001728  )
        12        C      tau(  12) = (   0.6854474   0.4474079   0.0001397  )
        13        C      tau(  13) = (   0.6799082   0.5318598   0.0001301  )
        14        C      tau(  14) = (   0.6511548   0.6122100   0.0001070  )
        15        C      tau(  15) = (   0.6188216   0.6911619   0.0001761  )
        16        C      tau(  16) = (   0.5769448   0.7753584   0.1416209  )
        17        C      tau(  17) = (   0.6146234   0.4589080   0.0039973  )
        18        C      tau(  18) = (   0.5877517   0.5347418   0.1443408  )
        19        C      tau(  19) = (   0.5192575   0.5904013   0.0003588  )
        20        C      tau(  20) = (   0.4352926   0.5986431   0.0003122  )
        21        C      tau(  21) = (   0.3626303   0.5564385   0.0002741  )
        22        C      tau(  22) = (   0.3358251   0.4770575   0.0002487  )
        23        C      tau(  23) = (   0.3654956   0.3981938   0.0002438  )
        24        C      tau(  24) = (   0.4319718   0.3455063   0.0002297  )
        25        C      tau(  25) = (   0.5145516   0.3257077   0.0002059  )
        26        C      tau(  26) = (   0.5978247   0.3420628   0.0001800  )
        27        C      tau(  27) = (   0.6634197   0.3952844   0.0001664  )
        28        C      tau(  28) = (   0.6882050   0.4757249   0.0001313  )
        29        C      tau(  29) = (   0.6714436   0.5590231   0.0001217  )
        30        C      tau(  30) = (   0.6405062   0.6386059   0.0001037  )
        31        C      tau(  31) = (   0.6069723   0.7170599   0.0002286  )
        32        C      tau(  32) = (   0.5636170   0.7967669   0.1403178  )
        33        C      tau(  33) = (   0.6145178   0.4840465   0.0196082  )
        34        C      tau(  34) = (   0.5806158   0.5501521   0.0249475  )
        35        C      tau(  35) = (   0.5064302   0.5968251   0.0239273  )
        36        C      tau(  36) = (   0.4208417   0.5963833   0.0237933  )
        37        C      tau(  37) = (   0.3527317   0.5455320   0.0237028  )
        38        C      tau(  38) = (   0.3357080   0.4623479   0.0236930  )
        39        C      tau(  39) = (   0.3734759   0.3858202   0.0236406  )
        40        C      tau(  40) = (   0.4445093   0.3378608   0.0236469  )
        41        C      tau(  41) = (   0.5291299   0.3241195   0.0236668  )
        42        C      tau(  42) = (   0.6116170   0.3471773   0.0236286  )
        43        C      tau(  43) = (   0.6736384   0.4062584   0.0233507  )
        44        C      tau(  44) = (   0.6901556   0.4900900   0.0235395  )
        45        C      tau(  45) = (   0.6674892   0.5727978   0.0238688  )
        46        C      tau(  46) = (   0.6355115   0.6524418   0.0238171  )
        47        C      tau(  47) = (   0.5995448   0.7325062   0.0219836  )
        48        C      tau(  48) = (   0.5632227   0.7959882   0.0163805  )
        49        C      tau(  49) = (   0.6076625   0.5108999   0.0227663  )
        50        C      tau(  50) = (   0.5586215   0.5672725   0.0220217  )
        51        C      tau(  51) = (   0.4785783   0.6022027   0.0237842  )
        52        C      tau(  52) = (   0.3947874   0.5852454   0.0237354  )
        53        C      tau(  53) = (   0.3404927   0.5199609   0.0237164  )
        54        C      tau(  54) = (   0.3428624   0.4349324   0.0236974  )
        55        C      tau(  55) = (   0.3942247   0.3665525   0.0236321  )
        56        C      tau(  56) = (   0.4715131   0.3293707   0.0236438  )
        57        C      tau(  57) = (   0.5572330   0.3275705   0.0236793  )
        58        C      tau(  58) = (   0.6352160   0.3628223   0.0236390  )
        59        C      tau(  59) = (   0.6847677   0.4323550   0.0232609  )
        60        C      tau(  60) = (   0.6857142   0.5180346   0.0234885  )
        61        C      tau(  61) = (   0.6570387   0.5990399   0.0238614  )
        62        C      tau(  62) = (   0.6249637   0.6785618   0.0239593  )
        63        C      tau(  63) = (   0.5863461   0.7573008   0.0230727  )
        64        C      tau(  64) = (   0.5743614   0.7768209   0.0049758  )
        65        C      tau(  65) = (   0.6227008   0.4435297   0.0467078  )
        66        C      tau(  66) = (   0.6087621   0.5229087   0.0484423  )
        67        C      tau(  67) = (   0.5464120   0.5780329   0.0479359  )
        68        C      tau(  68) = (   0.4636742   0.6028186   0.0484653  )
        69        C      tau(  69) = (   0.3821703   0.5771729   0.0483998  )
        70        C      tau(  70) = (   0.3366089   0.5055059   0.0483884  )
        71        C      tau(  71) = (   0.3484987   0.4210369   0.0483315  )
        72        C      tau(  72) = (   0.4057231   0.3569887   0.0482617  )
        73        C      tau(  73) = (   0.4859202   0.3255618   0.0482999  )
        74        C      tau(  74) = (   0.5718740   0.3304507   0.0483412  )
        75        C      tau(  75) = (   0.6472028   0.3721078   0.0481440  )
        76        C      tau(  76) = (   0.6895898   0.4465314   0.0478760  )
        77        C      tau(  77) = (   0.6830403   0.5323132   0.0483212  )
        78        C      tau(  78) = (   0.6518312   0.6128778   0.0486617  )
        79        C      tau(  79) = (   0.6190517   0.6930780   0.0481065  )
        80        C      tau(  80) = (   0.5807427   0.7688523   0.0484759  )
        81        C      tau(  81) = (   0.6238952   0.4727384   0.0450462  )
        82        C      tau(  82) = (   0.5916588   0.5450370   0.0497106  )
        83        C      tau(  83) = (   0.5210162   0.5912790   0.0481611  )
        84        C      tau(  84) = (   0.4353822   0.6001235   0.0484486  )
        85        C      tau(  85) = (   0.3615176   0.5576615   0.0483749  )
        86        C      tau(  86) = (   0.3342471   0.4771846   0.0483824  )
        87        C      tau(  87) = (   0.3634501   0.3968598   0.0483062  )
        88        C      tau(  88) = (   0.4304022   0.3428798   0.0482688  )
        89        C      tau(  89) = (   0.5142312   0.3230498   0.0483173  )
        90        C      tau(  90) = (   0.5985980   0.3401233   0.0483233  )
        91        C      tau(  91) = (   0.6662468   0.3932692   0.0479891  )
        92        C      tau(  92) = (   0.6922561   0.4748817   0.0479742  )
        93        C      tau(  93) = (   0.6738105   0.5591460   0.0484917  )
        94        C      tau(  94) = (   0.6411228   0.6391133   0.0486495  )
        95        C      tau(  95) = (   0.6071954   0.7190365   0.0475874  )
        96        C      tau(  96) = (   0.5655723   0.7940972   0.0454265  )
        97        C      tau(  97) = (   0.6256685   0.4842436   0.0700191  )
        98        C      tau(  98) = (   0.5816412   0.5552386   0.0742060  )
        99        C      tau(  99) = (   0.5069487   0.5962142   0.0729404  )
       100        C      tau( 100) = (   0.4208408   0.5969557   0.0729994  )
       101        C      tau( 101) = (   0.3524973   0.5458936   0.0729979  )
       102        C      tau( 102) = (   0.3351232   0.4623399   0.0729933  )
       103        C      tau( 103) = (   0.3722683   0.3848439   0.0728845  )
       104        C      tau( 104) = (   0.4435707   0.3359771   0.0728580  )
       105        C      tau( 105) = (   0.5290605   0.3224602   0.0729323  )
       106        C      tau( 106) = (   0.6122606   0.3462441   0.0728696  )
       107        C      tau( 107) = (   0.6750147   0.4054251   0.0724923  )
       108        C      tau( 108) = (   0.6927665   0.4895056   0.0726254  )
       109        C      tau( 109) = (   0.6691013   0.5729431   0.0732109  )
       110        C      tau( 110) = (   0.6355744   0.6532413   0.0731225  )
       111        C      tau( 111) = (   0.6014499   0.7320213   0.0721675  )
       112        C      tau( 112) = (   0.5583467   0.8068018   0.0686637  )
       113        C      tau( 113) = (   0.6163827   0.5103024   0.0725375  )
       114        C      tau( 114) = (   0.5589413   0.5720173   0.0729727  )
       115        C      tau( 115) = (   0.4786549   0.6018538   0.0729683  )
       116        C      tau( 116) = (   0.3943754   0.5856067   0.0730124  )
       117        C      tau( 117) = (   0.3401387   0.5198864   0.0730205  )
       118        C      tau( 118) = (   0.3421552   0.4343942   0.0729694  )
       119        C      tau( 119) = (   0.3931853   0.3649854   0.0728541  )
       120        C      tau( 120) = (   0.4711263   0.3274366   0.0728744  )
       121        C      tau( 121) = (   0.5576498   0.3262504   0.0729491  )
       122        C      tau( 122) = (   0.6364022   0.3620551   0.0727922  )
       123        C      tau( 123) = (   0.6868760   0.4317681   0.0724016  )
       124        C      tau( 124) = (   0.6879394   0.5179210   0.0727659  )
       125        C      tau( 125) = (   0.6579403   0.5994278   0.0732534  )
       126        C      tau( 126) = (   0.6245954   0.6798342   0.0729852  )
       127        C      tau( 127) = (   0.5881833   0.7569404   0.0723984  )
       128        C      tau( 128) = (   0.5433794   0.8296929   0.0786141  )
       129        C      tau( 129) = (   0.6217645   0.4377269   0.0734202  )
       130        C      tau( 130) = (   0.6062265   0.5195415   0.0973088  )
       131        C      tau( 131) = (   0.5466938   0.5795986   0.0980940  )
       132        C      tau( 132) = (   0.4636580   0.6033391   0.0977178  )
       133        C      tau( 133) = (   0.3811238   0.5783182   0.0977142  )
       134        C      tau( 134) = (   0.3352169   0.5055795   0.0977230  )
       135        C      tau( 135) = (   0.3469775   0.4199825   0.0976233  )
       136        C      tau( 136) = (   0.4044639   0.3548043   0.0974945  )
       137        C      tau( 137) = (   0.4856440   0.3231443   0.0975432  )
       138        C      tau( 138) = (   0.5726156   0.3287256   0.0976066  )
       139        C      tau( 139) = (   0.6487314   0.3710412   0.0973720  )
       140        C      tau( 140) = (   0.6919632   0.4459907   0.0970518  )
       141        C      tau( 141) = (   0.6849645   0.5324443   0.0975805  )
       142        C      tau( 142) = (   0.6524076   0.6135088   0.0979307  )
       143        C      tau( 143) = (   0.6187017   0.6938683   0.0977157  )
       144        C      tau( 144) = (   0.5808978   0.7701072   0.0964022  )
       145        C      tau( 145) = (   0.6232467   0.4616920   0.0898790  )
       146        C      tau( 146) = (   0.5902331   0.5430343   0.0986525  )
       147        C      tau( 147) = (   0.5211083   0.5920548   0.0976993  )
       148        C      tau( 148) = (   0.4353624   0.6013418   0.0976636  )
       149        C      tau( 149) = (   0.3605007   0.5587773   0.0976823  )
       150        C      tau( 150) = (   0.3327655   0.4772679   0.0977024  )
       151        C      tau( 151) = (   0.3617004   0.3956655   0.0975744  )
       152        C      tau( 152) = (   0.4291018   0.3406180   0.0974974  )
       153        C      tau( 153) = (   0.5139735   0.3207877   0.0975796  )
       154        C      tau( 154) = (   0.5992977   0.3385529   0.0975810  )
       155        C      tau( 155) = (   0.6676789   0.3922386   0.0972279  )
       156        C      tau( 156) = (   0.6947620   0.4742597   0.0971470  )
       157        C      tau( 157) = (   0.6754053   0.5591111   0.0978154  )
       158        C      tau( 158) = (   0.6414486   0.6395982   0.0979255  )
       159        C      tau( 159) = (   0.6072725   0.7198687   0.0977667  )
       160        C      tau( 160) = (   0.5668965   0.7940014   0.0940716  )
       161        C      tau( 161) = (   0.6168758   0.4746259   0.1123591  )
       162        C      tau( 162) = (   0.5777883   0.5516075   0.1239904  )
       163        C      tau( 163) = (   0.5049034   0.5975131   0.1197309  )
       164        C      tau( 164) = (   0.4182931   0.5976451   0.1195197  )
       165        C      tau( 165) = (   0.3500009   0.5449002   0.1196018  )
       166        C      tau( 166) = (   0.3337525   0.4598706   0.1196223  )
       167        C      tau( 167) = (   0.3720211   0.3816043   0.1194794  )
       168        C      tau( 168) = (   0.4446333   0.3328116   0.1194385  )
       169        C      tau( 169) = (   0.5313267   0.3204471   0.1195434  )
       170        C      tau( 170) = (   0.6151414   0.3458215   0.1194776  )
       171        C      tau( 171) = (   0.6777076   0.4065234   0.1190904  )
       172        C      tau( 172) = (   0.6944923   0.4913651   0.1192967  )
       173        C      tau( 173) = (   0.6693161   0.5749606   0.1200790  )
       174        C      tau( 174) = (   0.6351027   0.6553696   0.1201857  )
       175        C      tau( 175) = (   0.6009189   0.7336899   0.1212760  )
       176        C      tau( 176) = (   0.5565417   0.8091417   0.1166200  )
       177        C      tau( 177) = (   0.6095227   0.5005842   0.1196193  )
       178        C      tau( 178) = (   0.5582446   0.5708172   0.1217538  )
       179        C      tau( 179) = (   0.4805753   0.6024844   0.1199895  )
       180        C      tau( 180) = (   0.3953660   0.5880830   0.1197869  )
       181        C      tau( 181) = (   0.3393547   0.5224391   0.1196916  )
       182        C      tau( 182) = (   0.3397348   0.4357686   0.1195884  )
       183        C      tau( 183) = (   0.3899836   0.3644564   0.1194259  )
       184        C      tau( 184) = (   0.4683790   0.3255016   0.1194478  )
       185        C      tau( 185) = (   0.5559339   0.3238163   0.1195385  )
       186        C      tau( 186) = (   0.6359170   0.3594478   0.1193839  )
       187        C      tau( 187) = (   0.6879278   0.4291677   0.1190496  )
       188        C      tau( 188) = (   0.6901727   0.5157965   0.1194699  )
       189        C      tau( 189) = (   0.6594850   0.5977558   0.1199120  )
       190        C      tau( 190) = (   0.6255036   0.6782530   0.1198340  )
       191        C      tau( 191) = (   0.5873310   0.7579592   0.1222863  )
       192        C      tau( 192) = (   0.5419220   0.8308456   0.1035920  )
       193        Al     tau( 193) = (   0.5369463   0.6741398   0.0945526  )
       194        Cl     tau( 194) = (   0.5539596   0.6739884   0.0548060  )
       195        Cl     tau( 195) = (   0.5411480   0.7136696   0.1126288  )
       196        Cl     tau( 196) = (   0.5590311   0.6460808   0.1190563  )
       197        Cl     tau( 197) = (   0.4949210   0.6652382   0.0925717  )

     --------------------------------------------
     DFT-D3 Dispersion Correction (3-body terms):
     --------------------------------------------
       Reference C6 values for interpolation: 

         atom   Coordination number   C6
         C          0.000            98.23
         C          0.987            86.49
         C          1.998            58.72
         C          2.999            51.56
         C          3.984            36.41
         Al         0.000          1081.08
         Al         0.965           875.51
         Al         1.931           513.50
         Al         2.915           307.19
         Cl         0.000           184.69
         Cl         0.997           180.80

       Values used:

         atom   Coordination number  R0_AB[au]  C6      C8
         C          2.346            2.750     57.07   1650.44
         C          2.193            2.750     58.21   1683.46
         C          2.166            2.750     58.34   1687.26
         C          2.183            2.750     58.26   1684.98
         C          2.186            2.750     58.25   1684.57
         C          2.187            2.750     58.24   1684.40
         C          2.187            2.750     58.24   1684.44
         C          2.186            2.750     58.24   1684.47
         C          2.185            2.750     58.25   1684.66
         C          2.184            2.750     58.25   1684.77
         C          2.189            2.750     58.23   1684.07
         C          2.197            2.750     58.19   1682.96
         C          2.184            2.750     58.25   1684.77
         C          2.176            2.750     58.29   1685.97
         C          2.180            2.750     58.28   1685.42
         C          2.262            2.750     57.80   1671.61
         C          2.296            2.750     57.53   1663.92
         C          2.220            2.750     58.06   1679.31
         C          2.181            2.750     58.27   1685.19
         C          2.183            2.750     58.26   1684.89
         C          2.187            2.750     58.24   1684.41
         C          2.186            2.750     58.25   1684.56
         C          2.186            2.750     58.24   1684.49
         C          2.186            2.750     58.25   1684.57
         C          2.184            2.750     58.25   1684.77
         C          2.185            2.750     58.25   1684.68
         C          2.196            2.750     58.19   1683.09
         C          2.193            2.750     58.21   1683.49
         C          2.180            2.750     58.28   1685.43
         C          2.176            2.750     58.29   1685.90
         C          2.180            2.750     58.27   1685.35
         C          2.180            2.750     58.27   1685.31
         C          3.253            2.750     49.37   1427.77
         C          2.316            2.750     57.36   1658.86
         C          3.246            2.750     49.47   1430.86
         C          3.249            2.750     49.43   1429.55
         C          3.249            2.750     49.43   1429.62
         C          3.249            2.750     49.43   1429.64
         C          3.248            2.750     49.44   1429.86
         C          3.249            2.750     49.43   1429.72
         C          3.248            2.750     49.44   1429.96
         C          3.250            2.750     49.42   1429.21
         C          3.252            2.750     49.38   1428.12
         C          3.254            2.750     49.35   1427.21
         C          3.250            2.750     49.41   1428.89
         C          3.252            2.750     49.38   1428.29
         C          3.183            2.750     50.24   1453.00
         C          2.267            2.750     57.76   1670.54
         C          2.312            2.750     57.39   1659.87
         C          3.154            2.750     50.50   1460.59
         C          3.247            2.750     49.46   1430.37
         C          3.248            2.750     49.44   1429.75
         C          3.249            2.750     49.43   1429.65
         C          3.249            2.750     49.43   1429.65
         C          3.248            2.750     49.44   1429.84
         C          3.248            2.750     49.44   1429.88
         C          3.248            2.750     49.44   1429.91
         C          3.252            2.750     49.39   1428.33
         C          3.253            2.750     49.37   1427.88
         C          3.252            2.750     49.39   1428.37
         C          3.249            2.750     49.43   1429.51
         C          3.256            2.750     49.33   1426.62
         C          3.318            2.750     48.21   1394.32
         C          2.326            2.750     57.26   1656.11
         C          3.335            2.750     47.83   1383.38
         C          3.380            2.750     46.74   1351.75
         C          3.292            2.750     48.72   1408.97
         C          3.299            2.750     48.59   1405.32
         C          3.300            2.750     48.56   1404.31
         C          3.300            2.750     48.56   1404.52
         C          3.299            2.750     48.59   1405.24
         C          3.298            2.750     48.61   1405.76
         C          3.297            2.750     48.62   1406.16
         C          3.297            2.750     48.62   1406.23
         C          3.301            2.750     48.55   1404.29
         C          3.306            2.750     48.45   1401.27
         C          3.300            2.750     48.56   1404.32
         C          3.295            2.750     48.65   1407.13
         C          3.299            2.750     48.58   1404.98
         C          3.542            2.750     42.08   1216.89
         C          3.811            2.750     37.42   1082.21
         C          3.351            2.750     47.46   1372.60
         C          3.287            2.750     48.81   1411.60
         C          3.299            2.750     48.58   1405.02
         C          3.301            2.750     48.55   1404.16
         C          3.300            2.750     48.57   1404.85
         C          3.298            2.750     48.60   1405.47
         C          3.297            2.750     48.61   1405.98
         C          3.297            2.750     48.63   1406.38
         C          3.298            2.750     48.61   1405.74
         C          3.304            2.750     48.49   1402.40
         C          3.304            2.750     48.50   1402.57
         C          3.297            2.750     48.62   1406.13
         C          3.297            2.750     48.62   1406.07
         C          3.309            2.750     48.38   1399.37
         C          3.324            2.750     48.09   1390.74
         C          3.533            2.750     42.32   1224.09
         C          3.303            2.750     48.51   1403.12
         C          3.324            2.750     48.08   1390.53
         C          3.330            2.750     47.95   1386.72
         C          3.329            2.750     47.98   1387.54
         C          3.326            2.750     48.03   1389.09
         C          3.324            2.750     48.07   1390.37
         C          3.323            2.750     48.09   1390.87
         C          3.323            2.750     48.10   1391.04
         C          3.324            2.750     48.08   1390.52
         C          3.331            2.750     47.93   1386.25
         C          3.329            2.750     47.97   1387.45
         C          3.323            2.750     48.10   1391.18
         C          3.318            2.750     48.21   1394.21
         C          3.314            2.750     48.29   1396.54
         C          3.298            2.750     48.59   1405.41
         C          3.340            2.750     47.74   1380.60
         C          3.299            2.750     48.58   1404.93
         C          3.326            2.750     48.04   1389.29
         C          3.325            2.750     48.05   1389.63
         C          3.327            2.750     48.01   1388.59
         C          3.326            2.750     48.04   1389.43
         C          3.324            2.750     48.08   1390.47
         C          3.323            2.750     48.09   1390.91
         C          3.324            2.750     48.08   1390.60
         C          3.326            2.750     48.03   1389.12
         C          3.329            2.750     47.97   1387.36
         C          3.325            2.750     48.05   1389.70
         C          3.326            2.750     48.04   1389.29
         C          3.323            2.750     48.10   1391.26
         C          3.314            2.750     48.28   1396.48
         C          2.285            2.750     57.63   1666.71
         C          2.273            2.750     57.72   1669.35
         C          3.375            2.750     46.89   1356.02
         C          3.236            2.750     49.62   1434.99
         C          3.258            2.750     49.28   1425.39
         C          3.250            2.750     49.42   1429.21
         C          3.246            2.750     49.47   1430.66
         C          3.243            2.750     49.51   1431.82
         C          3.242            2.750     49.53   1432.43
         C          3.242            2.750     49.53   1432.51
         C          3.242            2.750     49.53   1432.45
         C          3.244            2.750     49.50   1431.56
         C          3.250            2.750     49.42   1429.25
         C          3.249            2.750     49.43   1429.48
         C          3.247            2.750     49.45   1430.32
         C          3.264            2.750     49.19   1422.79
         C          3.386            2.750     46.58   1347.28
         C          3.255            2.750     49.33   1426.75
         C          3.355            2.750     47.39   1370.46
         C          3.274            2.750     49.03   1418.03
         C          3.246            2.750     49.47   1430.65
         C          3.246            2.750     49.47   1430.75
         C          3.245            2.750     49.48   1431.16
         C          3.243            2.750     49.51   1432.01
         C          3.242            2.750     49.53   1432.43
         C          3.242            2.750     49.52   1432.32
         C          3.242            2.750     49.52   1432.30
         C          3.246            2.750     49.47   1430.79
         C          3.250            2.750     49.41   1428.98
         C          3.251            2.750     49.40   1428.67
         C          3.253            2.750     49.37   1428.00
         C          3.232            2.750     49.67   1436.49
         C          3.547            2.750     41.93   1212.55
         C          2.295            2.750     57.54   1664.21
         C          3.189            2.750     50.17   1451.02
         C          2.237            2.750     57.96   1676.38
         C          2.230            2.750     58.01   1677.67
         C          2.224            2.750     58.04   1678.63
         C          2.221            2.750     58.06   1679.13
         C          2.220            2.750     58.07   1679.38
         C          2.220            2.750     58.07   1679.39
         C          2.220            2.750     58.07   1679.40
         C          2.220            2.750     58.06   1679.28
         C          2.224            2.750     58.04   1678.75
         C          2.223            2.750     58.05   1678.88
         C          2.216            2.750     58.09   1680.08
         C          2.214            2.750     58.10   1680.29
         C          2.205            2.750     58.15   1681.76
         C          3.332            2.750     47.91   1385.78
         C          3.211            2.750     49.94   1444.22
         C          2.211            2.750     58.11   1680.77
         C          2.220            2.750     58.06   1679.33
         C          2.215            2.750     58.09   1680.14
         C          2.220            2.750     58.06   1679.32
         C          2.221            2.750     58.06   1679.17
         C          2.221            2.750     58.06   1679.20
         C          2.220            2.750     58.06   1679.30
         C          2.221            2.750     58.06   1679.22
         C          2.222            2.750     58.06   1679.07
         C          2.223            2.750     58.05   1678.82
         C          2.223            2.750     58.05   1678.91
         C          2.227            2.750     58.03   1678.20
         C          2.229            2.750     58.02   1677.90
         C          3.194            2.750     50.12   1449.46
         C          2.267            2.750     57.76   1670.63
         Al         3.989            3.789    307.19  29441.36
         Cl         1.072            2.933    180.84   7545.14
         Cl         1.090            2.933    180.83   7544.92
         Cl         1.071            2.933    180.84   7545.16
         Cl         1.072            2.933    180.84   7545.15

         Molecular C6 ( Ry / a.u.^6 ) =   2106554.75


     number of k points=     1  Methfessel-Paxton smearing, width (Ry)=  0.0200
                       cart. coord. in units 2pi/alat
        k(    1) = (   0.0000000   0.0000000   0.0000000), wk =   2.0000000

     Dense  grid: 29381147 G-vectors     FFT dimensions: ( 576, 576, 192)

     Smooth grid: 12173313 G-vectors     FFT dimensions: ( 405, 405, 144)

     Estimated max dynamical RAM per process >      49.82 GB

     Estimated total dynamical RAM >     398.57 GB

     Atomic positions and unit cell read from directory:
     ./ns.save/
 

     Check: negative core charge=   -0.000001

     The initial density is read from file :
     ./ns.save/charge-density


     negative rho (up, down):  5.313E-02 0.000E+00
     Starting wfcs from file
     Checking if some PAW data can be deallocated... 
     Calculation restarted from scf iteration #     2

     total cpu time spent up to now is       59.0 secs

     Self-consistent Calculation

     iteration #  2     ecut=    45.33 Ry     beta= 0.10
     Calculation restarted from end of k-point loop
     CG style diagonalization
     ethr =  8.61E-08,  avg # of iterations =  3.0

     negative rho (up, down):  5.313E-02 0.000E+00

     total cpu time spent up to now is      177.0 secs

     total energy              =   -3886.48014309 Ry
     estimated scf accuracy    <       0.01248443 Ry

     iteration #  3     ecut=    45.33 Ry     beta= 0.10
     CG style diagonalization
     ethr =  8.61E-08,  avg # of iterations =  3.0

     negative rho (up, down):  5.313E-02 0.000E+00

     total cpu time spent up to now is     2869.6 secs

     End of self-consistent calculation

          k = 0.0000 0.0000 0.0000 (****** PWs)   bands (ev):

   -23.9627 -23.6637 -23.6567 -23.6342 -23.5701 -23.4981 -23.4345 -23.3472
   -23.2886 -23.1917 -23.0733 -22.9769 -22.8787 -22.7843 -22.6737 -22.5537
   -22.4915 -22.4724 -22.4347 -22.4075 -22.3434 -22.3120 -22.2594 -22.1979
   -22.1300 -22.1092 -22.0165 -21.9862 -21.8998 -21.8566 -21.8074 -21.7687
   -21.5599 -21.4657 -21.4011 -21.3553 -21.2021 -21.1137 -21.0746 -20.9889
   -20.8333 -20.7849 -20.6580 -20.5858 -20.4629 -20.4072 -20.3828 -20.3714
   -20.3211 -20.3126 -20.2723 -20.2272 -20.1887 -20.1227 -20.0649 -20.0186
   -19.9771 -19.9676 -19.8780 -19.7427 -19.6774 -19.6455 -19.6060 -19.5335
   -19.4764 -19.4139 -19.3994 -19.3171 -19.2376 -19.1864 -19.1245 -19.0227
   -18.9247 -18.8517 -18.7991 -18.7984 -18.7677 -18.7050 -18.6101 -18.6009
   -18.4863 -18.4111 -18.3668 -18.3264 -18.2926 -18.2718 -18.2550 -18.2463
   -18.1945 -18.1437 -18.0803 -18.0446 -17.9784 -17.9682 -17.9076 -17.8571
   -17.7908 -17.7519 -17.6739 -17.4718 -17.3820 -17.1823 -17.0588 -17.0043
   -16.8894 -16.7525 -16.6283 -16.4997 -16.4190 -16.3912 -16.3534 -16.3531
   -16.3133 -16.2914 -16.2484 -16.2385 -16.2020 -16.1668 -16.1189 -16.0641
   -16.0212 -15.9733 -15.8693 -15.8302 -15.7985 -15.7042 -15.6645 -15.6491
   -15.6151 -15.5957 -15.5800 -15.5200 -15.4751 -15.4409 -15.3929 -15.3666
   -15.3315 -15.2433 -15.1334 -14.9211 -14.7605 -14.6316 -14.5367 -14.4259
   -14.2964 -14.1719 -14.0941 -14.0855 -14.0691 -14.0280 -13.9768 -13.9382
   -13.9275 -13.9147 -13.8702 -13.8280 -13.7886 -13.7480 -13.6797 -13.6677
   -13.6271 -13.6058 -13.5669 -13.5424 -13.4470 -13.3718 -13.2844 -13.2269
   -13.1664 -13.1338 -13.0544 -12.9622 -12.9306 -12.8799 -12.8250 -12.7938
   -12.7804 -12.7684 -12.7628 -12.7410 -12.7022 -12.6782 -12.6576 -12.6201
   -12.5462 -12.5225 -12.4296 -12.3868 -12.3240 -12.2882 -12.1606 -12.1019
   -12.0683 -12.0442 -11.9805 -11.9553 -11.9458 -11.9250 -11.8439 -11.8053
   -11.7891 -11.7677 -11.7555 -11.7255 -11.6982 -11.6904 -11.6770 -11.6314
   -11.5983 -11.5954 -11.5281 -11.5194 -11.4997 -11.4653 -11.4338 -11.4161
   -11.3867 -11.3686 -11.3628 -11.3324 -11.3244 -11.3195 -11.3130 -11.3030
   -11.2704 -11.2630 -11.2036 -11.1682 -11.1538 -11.1352 -11.0990 -11.0963
   -11.0545 -10.9861 -10.9793 -10.9407 -10.9179 -10.8921 -10.8620 -10.7510
   -10.7053 -10.6683 -10.6533 -10.5711 -10.5606 -10.4966 -10.4714 -10.4379
   -10.4016 -10.3908 -10.3669 -10.3415 -10.3125 -10.3003 -10.2742 -10.2337
   -10.2149 -10.1712 -10.1391 -10.0883 -10.0728 -10.0574 -10.0199  -9.9979
    -9.9415  -9.9103  -9.8798  -9.8271  -9.8047  -9.7827  -9.7230  -9.6991
    -9.6672  -9.6484  -9.5905  -9.5822  -9.5547  -9.5364  -9.5094  -9.4957
    -9.4845  -9.4737  -9.4231  -9.4153  -9.4017  -9.3988  -9.3794  -9.3753
    -9.3351  -9.2892  -9.2247  -9.1724  -9.1594  -9.1403  -9.0383  -8.9064
    -8.8429  -8.7745  -8.7201  -8.5541  -8.4808  -8.3875  -8.3367  -8.3222
    -8.2718  -8.2460  -8.2061  -8.1694  -8.1153  -8.0721  -8.0334  -7.9573
    -7.9388  -7.8677  -7.8376  -7.7712  -7.7530  -7.6620  -7.6186  -7.6049
    -7.5710  -7.5658  -7.5336  -7.4654  -7.4009  -7.3762  -7.2927  -7.2486
    -7.2285  -7.2136  -7.2059  -7.1713  -7.1443  -7.1374  -7.1340  -7.0921
    -7.0851  -7.0609  -7.0478  -7.0339  -7.0041  -7.0004  -6.9802  -6.9291
    -6.9088  -6.9009  -6.8851  -6.8322  -6.7991  -6.7879  -6.7806  -6.7625
    -6.6986  -6.6404  -6.5604  -6.5546  -6.5375  -6.4863  -6.4618  -6.4379
    -6.4235  -6.4216  -6.4190  -6.4160  -6.4108  -6.3977  -6.3931  -6.3833
    -6.3786  -6.3550  -6.3469  -6.3198  -6.3100  -6.2979  -6.2822  -6.2735
    -6.2511  -6.2410  -6.2307  -6.2134  -6.1868  -6.1355  -6.1142  -6.0581
    -5.9991  -5.9652  -5.9166  -5.8900  -5.8751  -5.8518  -5.7814  -5.7413
    -5.7210  -5.6815  -5.6250  -5.4414  -5.3055  -5.2013  -5.1628  -5.0696
    -5.0671  -5.0134  -4.9988  -4.9255  -4.8251  -4.7567  -4.7006  -4.6620
    -4.6111  -4.5000  -4.3955  -4.3377  -4.3207  -4.2234  -4.1571  -4.1139
    -4.0283  -4.0080  -3.9649  -3.9557  -3.9318  -3.8696  -3.8588  -3.8562
    -3.7746  -3.7355  -3.6404  -3.6096  -3.4767  -3.3524  -3.3375  -3.2704
    -3.2273  -3.1792  -3.1243  -3.0955  -3.0341  -2.9982  -2.9699  -2.9117
    -2.9022  -2.8690  -2.7390  -2.6660  -2.6030  -2.5850  -2.5580  -2.5169
    -2.5031  -2.4755  -2.4675  -2.4411  -2.4082  -2.3785  -2.3154  -2.2784
    -2.2128  -2.1744  -2.1307  -2.1001  -2.0167  -1.9025  -1.8557  -1.6750
    -1.6429  -1.5890  -1.5509  -1.4775  -1.4595  -1.4371  -1.2654  -1.2099
    -1.1062  -0.8821  -0.7302  -0.6390  -0.6154  -0.5366  -0.4536  -0.4350

     the Fermi energy is    -5.1111 ev

!    total energy              =   -3886.48160497 Ry
     total all-electron energy =    -18798.005394 Ry
     estimated scf accuracy    <       0.00004565 Ry
     smearing contrib. (-TS)   =      -0.01154995 Ry
     internal energy E=F+TS    =   -3886.47005502 Ry

     The total energy is F=E-TS. E is the sum of the following terms:
     one-electron contribution =  -46303.16607840 Ry
     hartree contribution      =   23241.88820679 Ry
     xc contribution           =    -923.18637932 Ry
     ewald contribution        =   21499.07990040 Ry
     DFT-D3 Dispersion         =      -0.42669806 Ry
     one-center paw contrib.   =   -1400.65900643 Ry

     convergence has been achieved in   3 iterations

     negative rho (up, down):  5.313E-02 0.000E+00

     Forces acting on atoms (cartesian axes, Ry/au):

     atom    1 type  1   force =     0.00005363    0.00039052    0.00018035
     atom    2 type  1   force =    -0.00050315    0.00079002    0.00024813
     atom    3 type  1   force =    -0.27512431    0.13874733    0.00882583
     atom    4 type  1   force =    -0.31400959   -0.02342388    0.01079518
     atom    5 type  1   force =    -0.23300971   -0.20982344    0.00214967
     atom    6 type  1   force =    -0.03324940   -0.30802731    0.00067724
     atom    7 type  1   force =     0.16083136   -0.26662189   -0.00031044
     atom    8 type  1   force =     0.26798759   -0.16040758   -0.00067205
     atom    9 type  1   force =     0.30987880   -0.03477624    0.00054985
     atom   10 type  1   force =     0.29573491    0.09993380    0.00136317
     atom   11 type  1   force =     0.20850631    0.23451191   -0.00434368
     atom   12 type  1   force =     0.03943880    0.30488358   -0.00204154
     atom   13 type  1   force =    -0.08540804    0.28949941    0.00890808
     atom   14 type  1   force =    -0.11735850    0.29103931    0.00918019
     atom   15 type  1   force =    -0.14741116    0.31925714   -0.02007196
     atom   16 type  1   force =     0.00138231   -0.00103035    0.00071989
     atom   17 type  1   force =    -0.01576262    0.01743935    0.00053869
     atom   18 type  1   force =     0.00040937   -0.00031844    0.00043953
     atom   19 type  1   force =     0.30135039   -0.15380262   -0.01699101
     atom   20 type  1   force =     0.32228273    0.03958523   -0.00139002
     atom   21 type  1   force =     0.22134098    0.22135048    0.00099550
     atom   22 type  1   force =     0.01769689    0.30885671    0.00142308
     atom   23 type  1   force =    -0.17284458    0.25963768   -0.00068388
     atom   24 type  1   force =    -0.27492573    0.15016226   -0.00081704
     atom   25 type  1   force =    -0.31093093    0.02344858    0.00154459
     atom   26 type  1   force =    -0.28979313   -0.10937211    0.00294578
     atom   27 type  1   force =    -0.19586891   -0.24087349   -0.00315351
     atom   28 type  1   force =    -0.02407191   -0.31720011   -0.00983088
     atom   29 type  1   force =     0.09452866   -0.29681237    0.00459783
     atom   30 type  1   force =     0.11521085   -0.28428869    0.01618787
     atom   31 type  1   force =     0.13401866   -0.29119067    0.00093450
     atom   32 type  1   force =    -0.00095410    0.00047464    0.00031391
     atom   33 type  1   force =    -0.00006916   -0.00019656   -0.00045158
     atom   34 type  1   force =     0.00075141   -0.00038555   -0.00047188
     atom   35 type  1   force =    -0.00073113   -0.00009336    0.00036697
     atom   36 type  1   force =    -0.00036010   -0.00004600   -0.00048066
     atom   37 type  1   force =     0.00034154    0.00010602   -0.00014450
     atom   38 type  1   force =    -0.00007378    0.00010631    0.00000139
     atom   39 type  1   force =    -0.00001105   -0.00004794    0.00002205
     atom   40 type  1   force =     0.00014104    0.00001375   -0.00001806
     atom   41 type  1   force =    -0.00017978    0.00000657    0.00002707
     atom   42 type  1   force =     0.00004281   -0.00006101    0.00006405
     atom   43 type  1   force =    -0.00013298   -0.00002494   -0.00002945
     atom   44 type  1   force =     0.00018195   -0.00015950    0.00006606
     atom   45 type  1   force =     0.00002502   -0.00114870   -0.00009445
     atom   46 type  1   force =    -0.00008027   -0.00044927   -0.00055857
     atom   47 type  1   force =     0.00137310    0.00006812   -0.00149004
     atom   48 type  1   force =    -0.00206522    0.00398311    0.00185654
     atom   49 type  1   force =    -0.00006057    0.00036768   -0.00024545
     atom   50 type  1   force =     0.00013431   -0.00027971   -0.00036367
     atom   51 type  1   force =    -0.00021430   -0.00044778   -0.00060066
     atom   52 type  1   force =     0.00038010   -0.00046492   -0.00027356
     atom   53 type  1   force =     0.00008597   -0.00031294   -0.00026557
     atom   54 type  1   force =     0.00008100    0.00001489   -0.00014712
     atom   55 type  1   force =    -0.00001935    0.00007779    0.00001964
     atom   56 type  1   force =    -0.00000948    0.00001902    0.00004975
     atom   57 type  1   force =    -0.00000126   -0.00000545    0.00000701
     atom   58 type  1   force =     0.00029531    0.00001960    0.00013517
     atom   59 type  1   force =    -0.00015779   -0.00004402   -0.00011347
     atom   60 type  1   force =     0.00008709    0.00034047    0.00016488
     atom   61 type  1   force =     0.00023834    0.00062858   -0.00068068
     atom   62 type  1   force =     0.00008151    0.00080963    0.00058659
     atom   63 type  1   force =    -0.00179754    0.00033149    0.00107455
     atom   64 type  1   force =     0.00195196   -0.00443302   -0.00206593
     atom   65 type  1   force =     0.00000747    0.00004021    0.00002653
     atom   66 type  1   force =    -0.00000488   -0.00017758   -0.00074946
     atom   67 type  1   force =    -0.00087243    0.00143649   -0.00014331
     atom   68 type  1   force =     0.00017027   -0.00072286    0.00033879
     atom   69 type  1   force =    -0.00037067    0.00018859   -0.00053206
     atom   70 type  1   force =    -0.00014913   -0.00001976   -0.00011715
     atom   71 type  1   force =    -0.00003537    0.00003086   -0.00010490
     atom   72 type  1   force =     0.00007248    0.00001251   -0.00011977
     atom   73 type  1   force =    -0.00006103    0.00000327   -0.00003639
     atom   74 type  1   force =    -0.00005905   -0.00006202   -0.00014592
     atom   75 type  1   force =     0.00025551    0.00005860   -0.00000059
     atom   76 type  1   force =     0.00005311   -0.00021822    0.00001904
     atom   77 type  1   force =    -0.00002882   -0.00022142   -0.00005503
     atom   78 type  1   force =     0.00039161    0.00046323   -0.00055122
     atom   79 type  1   force =     0.00026352   -0.00030752   -0.00144500
     atom   80 type  1   force =     0.00078475    0.00003869   -0.00161622
     atom   81 type  1   force =    -0.00009911   -0.00006435    0.00012150
     atom   82 type  1   force =    -0.00010721    0.00067221   -0.00050962
     atom   83 type  1   force =     0.00014516   -0.00117025   -0.00093185
     atom   84 type  1   force =    -0.00020324    0.00028374   -0.00083161
     atom   85 type  1   force =    -0.00041416    0.00006749   -0.00026238
     atom   86 type  1   force =    -0.00016757    0.00008448   -0.00020434
     atom   87 type  1   force =    -0.00004891    0.00005101   -0.00008130
     atom   88 type  1   force =     0.00005235    0.00003930   -0.00003706
     atom   89 type  1   force =    -0.00002715    0.00000330   -0.00003913
     atom   90 type  1   force =    -0.00000477   -0.00012803   -0.00009737
     atom   91 type  1   force =     0.00014161    0.00011239   -0.00008762
     atom   92 type  1   force =    -0.00011774   -0.00025501   -0.00045510
     atom   93 type  1   force =    -0.00064890    0.00035666   -0.00012313
     atom   94 type  1   force =    -0.00008902    0.00002941    0.00064760
     atom   95 type  1   force =    -0.00022094    0.00010247   -0.00134639
     atom   96 type  1   force =     0.00006100    0.00010449    0.00109409
     atom   97 type  1   force =     0.00013497    0.00006648   -0.00054373
     atom   98 type  1   force =     0.00022210    0.00033874    0.00040009
     atom   99 type  1   force =     0.00014665   -0.00071343    0.00084319
     atom  100 type  1   force =     0.00017618   -0.00100287    0.00041938
     atom  101 type  1   force =     0.00026918   -0.00008798    0.00021051
     atom  102 type  1   force =    -0.00003448    0.00025430    0.00023588
     atom  103 type  1   force =    -0.00007730    0.00010125    0.00003503
     atom  104 type  1   force =     0.00014403    0.00000014   -0.00005749
     atom  105 type  1   force =    -0.00015574    0.00000658    0.00002780
     atom  106 type  1   force =     0.00010479   -0.00005579    0.00000965
     atom  107 type  1   force =     0.00010906    0.00014516    0.00013692
     atom  108 type  1   force =     0.00003927   -0.00015355    0.00014977
     atom  109 type  1   force =    -0.00001824    0.00099694   -0.00025133
     atom  110 type  1   force =     0.00064283   -0.00052074    0.00031698
     atom  111 type  1   force =    -0.00179289    0.00048914    0.00130198
     atom  112 type  1   force =     0.00091724   -0.00067606   -0.00079168
     atom  113 type  1   force =     0.00010871   -0.00048236    0.00051648
     atom  114 type  1   force =    -0.00058984   -0.00019668   -0.00009142
     atom  115 type  1   force =    -0.00033906   -0.00073784    0.00045620
     atom  116 type  1   force =    -0.00010545    0.00015927    0.00007921
     atom  117 type  1   force =     0.00008067    0.00030795   -0.00005144
     atom  118 type  1   force =     0.00001253   -0.00014572   -0.00000442
     atom  119 type  1   force =     0.00007679   -0.00005739    0.00008819
     atom  120 type  1   force =    -0.00016596    0.00007004   -0.00000742
     atom  121 type  1   force =    -0.00002570   -0.00001012    0.00005841
     atom  122 type  1   force =     0.00006256    0.00001909   -0.00001872
     atom  123 type  1   force =    -0.00005564   -0.00004092   -0.00007132
     atom  124 type  1   force =     0.00009705    0.00023882    0.00013970
     atom  125 type  1   force =     0.00102091   -0.00000384    0.00001788
     atom  126 type  1   force =    -0.00094760    0.00070702    0.00164885
     atom  127 type  1   force =     0.00093640   -0.00066896    0.00058625
     atom  128 type  1   force =    -0.00089756    0.00124992    0.00373632
     atom  129 type  1   force =    -0.00005396   -0.00021687    0.00011140
     atom  130 type  1   force =     0.00015774   -0.00017770    0.00019211
     atom  131 type  1   force =     0.00005154   -0.00076281   -0.00114993
     atom  132 type  1   force =    -0.00005229    0.00139745   -0.00139655
     atom  133 type  1   force =     0.00029949    0.00009189   -0.00033839
     atom  134 type  1   force =    -0.00027178   -0.00013034   -0.00011590
     atom  135 type  1   force =    -0.00014095    0.00024533    0.00015549
     atom  136 type  1   force =    -0.00018053    0.00013985    0.00012443
     atom  137 type  1   force =     0.00005775   -0.00005041   -0.00009613
     atom  138 type  1   force =    -0.00009670   -0.00010624    0.00001612
     atom  139 type  1   force =     0.00009978   -0.00010009   -0.00012729
     atom  140 type  1   force =     0.00003782    0.00041063    0.00002817
     atom  141 type  1   force =    -0.00015594    0.00038201    0.00007523
     atom  142 type  1   force =    -0.00032647    0.00057749   -0.00045288
     atom  143 type  1   force =     0.00078382    0.00022405    0.00111780
     atom  144 type  1   force =     0.00064872   -0.00239631   -0.00033026
     atom  145 type  1   force =    -0.00028497   -0.00022867   -0.00001689
     atom  146 type  1   force =    -0.00047978    0.00049742   -0.00009603
     atom  147 type  1   force =     0.00056076    0.00089190   -0.00054807
     atom  148 type  1   force =    -0.00080283   -0.00095105   -0.00036805
     atom  149 type  1   force =     0.00042598   -0.00020864   -0.00002100
     atom  150 type  1   force =    -0.00000921   -0.00048610    0.00002031
     atom  151 type  1   force =     0.00005560   -0.00007476    0.00007605
     atom  152 type  1   force =    -0.00022400    0.00015998   -0.00003688
     atom  153 type  1   force =     0.00014759   -0.00003411    0.00001928
     atom  154 type  1   force =    -0.00000490   -0.00012064    0.00003720
     atom  155 type  1   force =     0.00004197   -0.00010435   -0.00017364
     atom  156 type  1   force =     0.00018535    0.00046460    0.00016838
     atom  157 type  1   force =     0.00003878   -0.00084472   -0.00035113
     atom  158 type  1   force =     0.00057303   -0.00104362   -0.00077098
     atom  159 type  1   force =     0.00015587    0.00162502    0.00171067
     atom  160 type  1   force =    -0.00130035    0.00104612    0.00041050
     atom  161 type  1   force =     0.00024256    0.00006567   -0.00005071
     atom  162 type  1   force =     0.00058055   -0.00074189   -0.00047490
     atom  163 type  1   force =     0.00097568   -0.00008337   -0.00002622
     atom  164 type  1   force =    -0.00139845   -0.00015216    0.00003759
     atom  165 type  1   force =    -0.00162719   -0.00296928    0.00033665
     atom  166 type  1   force =    -0.00051177    0.00160529   -0.00024429
     atom  167 type  1   force =    -0.00100103    0.00102890   -0.00013434
     atom  168 type  1   force =     0.00103294   -0.00034501    0.00016164
     atom  169 type  1   force =    -0.00080364   -0.00012478   -0.00014278
     atom  170 type  1   force =     0.00058277    0.00014929    0.00008430
     atom  171 type  1   force =     0.00044660    0.00071844   -0.00003351
     atom  172 type  1   force =     0.00051312   -0.00312779   -0.00038536
     atom  173 type  1   force =    -0.00115230    0.00282232    0.00031112
     atom  174 type  1   force =     0.00071089   -0.00185933    0.00065146
     atom  175 type  1   force =     0.00289299    0.00002023   -0.00232467
     atom  176 type  1   force =     0.00014348   -0.00028032    0.00083002
     atom  177 type  1   force =     0.00010745    0.00000760    0.00022851
     atom  178 type  1   force =    -0.00002463   -0.00004338    0.00031657
     atom  179 type  1   force =    -0.00160086    0.00059168    0.00025653
     atom  180 type  1   force =     0.00158203    0.00020429    0.00013858
     atom  181 type  1   force =     0.00118290    0.00299132    0.00027287
     atom  182 type  1   force =     0.00035475   -0.00152260   -0.00019188
     atom  183 type  1   force =     0.00096603   -0.00087632   -0.00005800
     atom  184 type  1   force =    -0.00102387    0.00035365    0.00002136
     atom  185 type  1   force =     0.00067314    0.00004513   -0.00005953
     atom  186 type  1   force =    -0.00026723   -0.00032981   -0.00001059
     atom  187 type  1   force =    -0.00018864   -0.00096393    0.00001527
     atom  188 type  1   force =    -0.00051293    0.00306049   -0.00004277
     atom  189 type  1   force =     0.00157389   -0.00246127    0.00093234
     atom  190 type  1   force =    -0.00088620    0.00205248   -0.00056196
     atom  191 type  1   force =     0.00034024   -0.00022166    0.00066323
     atom  192 type  1   force =     0.00136031    0.00095227   -0.00406407
     atom  193 type  2   force =     0.00114480    0.00535641    0.00516762
     atom  194 type  3   force =    -0.00004433   -0.00138190   -0.00246642
     atom  195 type  3   force =    -0.00264581   -0.00545768   -0.00314085
     atom  196 type  3   force =    -0.00143212    0.00038945   -0.00284767
     atom  197 type  3   force =    -0.00064339   -0.00034879   -0.00134690

     Total force =     0.020422     Total SCF correction =     0.011740
     SCF correction compared to forces is large: reduce conv_thr to get better values
     Energy error            =      4.5E-05 Ry
     Gradient error          =      5.5E-03 Ry/Bohr

     number of scf cycles    =   5
     number of bfgs steps    =   3

     energy             old  =   -3886.4816498307 Ry
     energy             new  =   -3886.4816049740 Ry

     CASE: energy            _new > energy            _old


 %%%%%%%%%%%%%%%%%%%%%%%%%%%%%%%%%%%%%%%%%%%%%%%%%%%%%%%%%%%%%%%%%%%%%%%%%%%%%%
     Error in routine bfgs (1):
     dE0s is positive which should never happen
 %%%%%%%%%%%%%%%%%%%%%%%%%%%%%%%%%%%%%%%%%%%%%%%%%%%%%%%%%%%%%%%%%%%%%%%%%%%%%%

     stopping ...
